# vtk DataFile Version 5.1
vtk output
ASCII
DATASET UNSTRUCTURED_GRID
POINTS 186 double
526041.87211 4820928.815 700 525418.41407 4821097.9828 700 524856.8238 4821229.6209 700 
524715.17956 4821367.9462 700 524728.50699 4821572.6575 700 524667.91098 4821742.213 700 
524515.64159 4821845.4306 700 524461.17555 4821910.9355 700 524453.57317 4822073.2117 700 
524355.3518 4822214.8014 700 524282.17677 4822458.5033 700 524210.30938 4822560.4863 700 
523965.25445 4822703.9862 700 523540.74357 4823066.5637 700 523310.21184 4823158.4951 700 
522924.68623 4823345.1601 700 522574.13911 4823585.8069 700 522381.72784 4823681.4189 700 
521935.1856 4823778.4115 700 521656.60547 4823929.66 700 521564.90837 4823952.4321 700 
521468.39028 4823942.5715 700 521372.02564 4823871.7406 700 521315.67233 4823885.2219 700 
521277.9869 4824065.1981 700 520880.58647 4824444.2549 700 520729.06664 4824380.2031 700 
520623.55084 4824561.9396 700 520588.44048 4824630.9337 700 520622.23224 4824704.6373 700 
520605.87166 4824768.2915 700 520554.37976 4824713.3585 700 520515.84673 4824721.8033 700 
520509.8262 4824760.4451 700 520777.58645 4825040.7862 700 521471.30502 4825727.038 700 
521809.71897 4826067.7983 700 521883.3056 4826111.6072 700 521962.88294 4826147.5067 700 
522063.20803 4826192.7157 700 522129.5129 4826159.8157 700 522150.48238 4826163.3389 700 
522183.53758 4826215.4358 700 522668.84421 4826537.8916 700 522701.51569 4826584.7588 700 
522717.84594 4826749.1847 700 522704.99751 4826805.738 700 522695.01025 4826858.8692 700 
522712.0419 4826923.2646 700 522716.3536 4826946.702 700 522746.53372 4826968.2502 700 
522778.14021 4826983.2952 700 522812.93696 4826962.1453 700 522815.90709 4826940.876 700 
522840.42498 4826861.5618 700 522878.83825 4826771.9442 700 522858.67648 4826588.9243 700 
522914.24147 4826547.688 700 523077.03046 4826558.597 700 523252.26568 4826527.8052 700 
523487.86758 4826538.566 700 523573.65151 4826479.0383 700 523895.05019 4826430.2867 700 
524234.77387 4826369.3667 700 524295.53544 4826349.4289 700 524315.44848 4826305.4319 700 
524365.11153 4826285.3434 700 524430.9046 4826305.0073 700 524536.53242 4826270.353 700 
524956.45604 4826075.1235 700 525303.51185 4825914.1629 700 525460.67508 4825583.317 700 
525496.04977 4825327.1107 700 525472.33683 4825248.4559 700 525475.31904 4825122.2016 700 
525439.91342 4824890.2714 700 525434.74378 4824839.6856 700 525452.35476 4824809.6881 700 
525444.98989 4824773.743 700 525419.22479 4824765.0715 700 525387.72865 4824585.122 700 
525296.8533 4824296.5864 700 525143.42359 4823939.7261 700 524975.58704 4823497.9543 700 
524970.15367 4823375.8671 700 525000.69789 4823284.7109 700 525071.6738 4823134.999 700 
525141.69647 4823046.5787 700 525198.50304 4822985.1973 700 525310.1996 4822921.7462 700 
525380.16525 4822875.4758 700 525756.34981 4822771.9333 700 525815.64344 4822765.3197 700 
525947.67005 4822785.7972 700 526060.56806 4822815.0769 700 526217.63579 4822861.2566 700 
526313.01246 4822892.7156 700 526389.85368 4822911.4644 700 526433.71884 4822915.4574 700 
526455.65618 4822917.2652 700 526468.40142 4822931.5646 700 526523.9203 4822941.8902 700 
526600.07105 4822932.8067 700 526722.9667 4822969.2229 700 526761.8323 4823001.4743 700 
526858.94178 4823008.5035 700 527019.54906 4822967.4444 700 527058.60515 4822976.1311 700 
527133.8351 4822897.2037 700 527148.38354 4822854.7039 700 527168.60738 4822842.8466 700 
527184.71949 4822865.0796 700 527193.15376 4822904.4516 700 527188.50329 4822967.8598 700 
527200.69193 4823021.4628 700 527207.14956 4823076.1866 700 527216.6158 4823095.9827 700 
527219.19866 4823120.2934 700 527285.04232 4823170.9601 700 527326.63675 4823168.7748 700 
527343.68135 4823169.9437 700 527410.36647 4823166.4728 700 527445.02261 4823166.4367 700 
527456.00542 4823168.6917 700 527478.79763 4823158.7006 700 527489.64351 4823154.9467 700 
527540.12042 4823137.4503 700 527859.21826 4823060.4907 700 528308.31231 4822952.2183 700 
528322.50134 4822948.802 700 528399.36272 4822907.9006 700 528425.14888 4822866.6172 700 
528438.89441 4822849.7385 700 528442.21321 4822851.8294 700 528452.3296 4822845.1198 700 
528457.98202 4822845.4436 700 528476.34835 4822828.3958 700 528516.38803 4822778.3105 700 
528593.63673 4822719.2656 700 528618.35289 4822643.3161 700 528634.0391 4822559.8427 700 
528560.7346 4822437.3299 700 528625.56063 4822352.6662 700 528621.9417 4822233.3044 700 
528652.84828 4822213.9561 700 528742.02054 4822216.8915 700 528878.83689 4822177.9183 700 
528842.27741 4822089.512 700 528703.80424 4822024.359 700 528897.12813 4821668.2373 700 
529052.50981 4821248.7632 700 529649.59136 4821330.336 700 530328.49738 4821096.4505 700 
530748.55443 4820623.5504 700 531170.80967 4820741.6437 700 531417.67321 4820768.2153 700 
531617.37093 4820660.1451 700 531877.89267 4820337.0322 700 532042.09483 4820019.6444 700 
532006.31531 4819800.7276 700 532152.2591 4819335.9441 700 532014.33684 4819343.1046 700 
532021.66212 4819233.722 700 531920.76376 4819314.5723 700 531833.90104 4819425.1883 700 
531804.74327 4819398.1734 700 531838.38568 4819200.0107 700 531860.7477 4819037.7675 700 
531798.28849 4818999.6444 700 531529.36469 4819102.009 700 531306.96999 4819173.7925 700 
531083.47442 4819330.9175 700 530946.4456 4819140.7598 700 530759.89204 4819187.571 700 
530555.62531 4819154.7651 700 530393.01673 4819023.4759 700 530190.60963 4818972.7976 700 
529264.31564 4819668.6627 700 528957.01725 4819807.1464 700 528712.02862 4819802.4194 700 
528512.95784 4819971.8504 700 527633.09584 4820423.691 700 526991.21978 4820523.7136 700 
526728.39371 4820455.7824 700 526550.85312 4820496.0711 700 526041.87211 4820928.815 700 

CELLS 2 186
OFFSETS vtktypeint64
0 186 
CONNECTIVITY vtktypeint64
0 1 2 3 4 5 6 7 8 
9 10 11 12 13 14 15 16 17 
18 19 20 21 22 23 24 25 26 
27 28 29 30 31 32 33 34 35 
36 37 38 39 40 41 42 43 44 
45 46 47 48 49 50 51 52 53 
54 55 56 57 58 59 60 61 62 
63 64 65 66 67 68 69 70 71 
72 73 74 75 76 77 78 79 80 
81 82 83 84 85 86 87 88 89 
90 91 92 93 94 95 96 97 98 
99 100 101 102 103 104 105 106 107 
108 109 110 111 112 113 114 115 116 
117 118 119 120 121 122 123 124 125 
126 127 128 129 130 131 132 133 134 
135 136 137 138 139 140 141 142 143 
144 145 146 147 148 149 150 151 152 
153 154 155 156 157 158 159 160 161 
162 163 164 165 166 167 168 169 170 
171 172 173 174 175 176 177 178 179 
180 181 182 183 184 185 
CELL_TYPES 1
4

CELL_DATA 1
SCALARS Elev double
LOOKUP_TABLE default
700 
