# vtk DataFile Version 5.1
vtk output
ASCII
DATASET UNSTRUCTURED_GRID
POINTS 1209 double
625682.63839 4801935.8109 1300 625641.03385 4802115.2909 1300 625668.72289 4802122.738 1300 
625738.14264 4802130.9612 1300 625797.32706 4802128.5961 1300 625839.25135 4802118.9778 1300 
625866.81115 4802133.3557 1300 625925.60837 4802151.7817 1300 625980.98555 4802166.6783 1300 
626018.59399 4802202.0414 1300 626049.177 4802240.7398 1300 626044.92553 4802282.255 1300 
626086.33225 4802300.3583 1300 626099.65503 4802331.8027 1300 626109.12182 4802383.9724 1300 
626094.49836 4802421.8279 1300 626115.10427 4802436.0772 1300 626174.545 4802419.8554 1300 
626271.84263 4802425.1385 1300 626330.37726 4802457.4281 1300 626357.28695 4802506.4581 1300 
626419.16687 4802545.7435 1300 626466.68021 4802609.0243 1300 626524.29636 4802689.8145 1300 
626592.02218 4802788.1368 1300 626680.47939 4802893.7698 1300 626731.34167 4802964.0478 1300 
626764.5481 4803047.8489 1300 626797.95679 4803121.2553 1300 626814.30313 4803177.0217 1300 
626848.74311 4803194.9881 1300 626858.52779 4803229.834 1300 626906.22739 4803282.712 1300 
626946.32408 4803370.1098 1300 626974.07178 4803374.0973 1300 626987.51833 4803398.6136 1300 
627004.44843 4803423.1954 1300 627031.54472 4803461.8222 1300 627055.10811 4803503.8489 1300 
627060.9515 4803562.8848 1300 627073.87622 4803615.1103 1300 627104.84591 4803633.0129 1300 
627086.74365 4803670.801 1300 627062.40749 4803670.3433 1300 627009.67377 4803700.5369 1300 
626956.15115 4803772.3108 1300 626916.35216 4803854.7305 1300 626852.666 4803912.4493 1300 
626824.14016 4803950.0313 1300 626795.41145 4803998.0082 1300 626801.52487 4804043.1729 1300 
626754.44565 4804142.7879 1300 626700.53933 4804235.3428 1300 626781.86532 4804164.0887 1300 
626943.86305 4804056.2445 1300 627063.29953 4803992.6423 1300 627182.09415 4803963.6925 1300 
627248.66267 4803937.2271 1300 627300.62062 4803948.6046 1300 627337.87778 4804001.2781 1300 
627322.93211 4804056.4453 1300 627339.40229 4804105.272 1300 627341.63678 4804171.1616 1300 
627361.32056 4804233.9029 1300 627318.68854 4804281.6156 1300 627328.39572 4804319.9162 1300 
627355.42099 4804362.0094 1300 627360.68136 4804452.1977 1300 627342.51445 4804493.439 1300 
627299.8841 4804541.1519 1300 627278.04715 4804592.7119 1300 627302.24939 4804600.1004 1300 
627361.41335 4804597.7494 1300 627433.75837 4804633.7652 1300 627453.4397 4804696.5068 1300 
627494.89324 4804711.1541 1300 627511.36052 4804759.9703 1300 627546.24828 4804753.6965 1300 
627588.29013 4804737.1703 1300 627646.92945 4804762.5309 1300 627687.72738 4804811.8185 1300 
627707.07031 4804891.8747 1300 627758.10303 4804951.744 1300 627781.64817 4804993.7734 1300 
627794.76089 4805035.5944 1300 627822.50945 4805039.5857 1300 627846.31622 4805067.7553 1300 
627814.50311 4805094.8721 1300 627859.42816 4805109.5875 1300 627871.69579 4805196.4319 1300 
627877.39894 4805262.3766 1300 627930.13315 4805232.1901 1300 627951.83398 4805187.562 1300 
627977.48559 4805118.745 1300 628039.25833 4805161.4998 1300 628086.54063 4805235.1546 1300 
628144.5823 4805291.6938 1300 628189.5056 4805306.4003 1300 628202.49165 4805355.1523 1300 
628240.06237 4805390.5173 1300 628301.57594 4805447.1238 1300 628338.69319 4805506.7224 1300 
628365.50976 4805559.204 1300 628396.52463 4805573.6587 1300 628482.69403 4805613.4044 1300 
628576.00902 4805642.8997 1300 628621.12691 4805647.2252 1300 628651.55525 4805692.8443 1300 
628678.69876 4805728.002 1300 628638.88079 4805810.3897 1300 628623.86172 4805869.0081 1300 
628573.75429 4805944.2675 1300 628530.86005 4806005.8106 1300 628526.39684 4806057.6976 1300 
628504.09336 4806133.4868 1300 628464.67503 4806195.0964 1300 628466.83137 4806264.4185 1300 
628468.59222 4806354.5198 1300 628466.74706 4806451.485 1300 628451.00598 4806548.1858 1300 
628493.62442 4806500.5022 1300 628519.4749 4806421.3143 1300 628562.95196 4806328.608 1300 
628602.3045 4806270.464 1300 628655.09229 4806236.8291 1300 628680.60743 4806174.9556 1300 
628740.41888 4806137.9889 1300 628748.02757 4806103.4933 1300 628776.16783 4806086.6986 1300 
628811.84288 4806038.8844 1300 628857.42071 4806018.9675 1300 628886.14836 4805971.01 1300 
628921.30402 4805950.8946 1300 628990.35082 4805976.4662 1300 629031.33029 4806015.3561 1300 
629039.89985 4806112.5205 1300 629059.95876 4806154.4772 1300 629115.04003 4806183.2495 1300 
629145.58696 4806221.9408 1300 629221.51211 4806251.1128 1300 629298.17448 4806242.1817 1300 
629340.34477 4806218.7364 1300 629364.0082 4806253.8417 1300 629419.27861 4806272.2213 1300 
629426.95711 4806234.2614 1300 629454.83288 4806231.3296 1300 629472.40295 4806221.2676 1300 
629535.75928 4806180.9095 1300 629590.90496 4806206.2207 1300 629676.79345 4806259.8422 1300 
629693.23287 4806308.6529 1300 629702.46568 4806371.1905 1300 629680.74851 4806415.8019 1300 
629693.84634 4806457.627 1300 629713.83354 4806503.0508 1300 629722.60013 4806589.8214 1300 
629737.02829 4806562.3904 1300 629755.40484 4806510.7712 1300 629787.28618 4806480.2095 1300 
629828.71619 4806494.8602 1300 629863.3392 4806502.4588 1300 629886.99912 4806537.5548 1300 
629911.25848 4806541.4879 1300 629921.0888 4806572.8517 1300 629923.76295 4806614.4767 1300 
629909.3927 4806638.4421 1300 629908.65963 4806676.5352 1300 629923.97119 4806784.2189 1300 
629947.22971 4806840.0943 1300 629988.26511 4806875.5253 1300 629994.41262 4806917.2062 1300 
630014.46303 4806959.1659 1300 630062.51161 4806991.2662 1300 630082.49479 4807036.6801 1300 
630120.25472 4807061.6611 1300 630126.26758 4807110.2721 1300 630101.14275 4807151.3503 1300 
630103.54839 4807206.8244 1300 630137.03274 4807273.2745 1300 630181.0706 4807333.0068 1300 
630191.02368 4807357.4519 1300 630124.46748 4807383.8767 1300 630071.74731 4807414.0351 1300 
630078.49425 4807424.553 1300 630123.06559 4807456.5869 1300 630198.71391 4807499.6084 1300 
630211.93979 4807534.5046 1300 630190.22246 4807579.1145 1300 630141.17713 4807598.9554 1300 
630078.49742 4807604.6684 1300 630019.69949 4807589.6812 1300 629964.03324 4807592.0753 1300 
629922.00233 4807608.5865 1300 629893.67358 4807635.7495 1300 629889.26731 4807684.1487 1300 
629829.06279 4807741.8731 1300 629867.55258 4807728.7595 1300 629902.70233 4807708.6604 1300 
629934.43773 4807685.0182 1300 629976.068 4807689.2862 1300 629982.61457 4807710.1991 1300 
630044.55954 4807742.5561 1300 630113.31681 4807781.9888 1300 630154.07846 4807831.259 1300 
630146.19684 4807879.6022 1300 630123.67996 4807965.7483 1300 630111.98368 4808031.3273 1300 
630110.51482 4808107.5026 1300 630108.64569 4808204.4348 1300 630135.03649 4808277.6811 1300 
630161.83585 4808330.1374 1300 630153.94645 4808378.4804 1300 630201.2573 4808448.6532 1300 
630241.40432 4808529.087 1300 630282.49459 4808561.044 1300 630347.83617 4808596.9361 1300 
630405.82959 4808653.4738 1300 630460.07345 4808723.7825 1300 630521.73878 4808769.9933 1300 
630534.49953 4808829.1124 1300 630553.59461 4808919.5178 1300 630604.70504 4808972.4578 1300 
630666.23304 4809025.589 1300 630619.33342 4808934.6447 1300 630589.67879 4808850.9561 1300 
630584.87736 4808740.0514 1300 630548.93727 4808621.6115 1300 630477.65537 4808533.6519 1300 
630426.74119 4808470.3289 1300 630404.42953 4808365.9965 1300 630342.9685 4808309.392 1300 
630354.52473 4808250.7432 1300 630363.4107 4808150.4802 1300 630389.14411 4808078.24 1300 
630384.33019 4807967.3244 1300 630440.93073 4807916.4567 1300 630518.90753 4807838.3055 1300 
630576.50669 4807735.5187 1300 630620.81717 4807601.2892 1300 630630.25181 4807473.3175 1300 
630645.35238 4807411.2603 1300 630708.50411 4807381.3083 1300 630819.69872 4807383.4627 1300 
630776.53887 4807278.714 1300 630690.47069 4807235.4731 1300 630621.71058 4807196.0457 1300 
630605.13812 4807154.1623 1300 630627.19474 4807092.2286 1300 630601.00471 4807008.5965 1300 
630533.51422 4806903.3679 1300 630444.5011 4806832.365 1300 630386.09029 4806796.5955 1300 
630401.06418 4806741.4569 1300 630429.53249 4806707.3659 1300 630433.80938 4806665.8749 1300 
630466.42943 4806597.2232 1300 630511.80796 4806587.7125 1300 630546.8906 4806571.0703 1300 
630581.44576 4806582.1265 1300 630630.63359 4806555.3697 1300 630661.97467 4806552.51 1300 
630697.40119 4806518.5547 1300 630764.10242 4806485.2053 1300 630795.04132 4806503.1252 1300 
630819.83736 4806479.3524 1300 630854.86231 4806466.177 1300 630900.44391 4806446.2738 1300 
630945.75718 4806440.2199 1300 630981.11042 4806409.7309 1300 631007.83586 4806465.6775 1300 
631015.59855 4806424.2543 1300 631064.72207 4806400.9657 1300 631086.2472 4806366.7314 1300 
631128.89407 4806319.0642 1300 631157.09878 4806298.8252 1300 631205.75278 4806299.7705 1300 
631292.50362 4806308.3897 1300 631344.09284 4806337.1016 1300 631360.86493 4806368.6139 1300 
631381.38066 4806386.3337 1300 631402.9747 4806348.6464 1300 631420.82526 4806324.7406 1300 
631451.89824 4806335.7335 1300 631493.33384 4806350.4057 1300 631535.57916 4806323.509 1300 
631591.38368 4806314.2086 1300 631604.8159 4806338.7126 1300 631624.85844 4806380.6773 1300 
631652.38899 4806395.0795 1300 631680.86539 4806360.9825 1300 631705.32719 4806354.538 1300 
631774.56329 4806369.7434 1300 631836.78326 4806388.2787 1300 631891.97896 4806410.1438 1300 
631926.73595 4806410.8229 1300 631964.62858 4806428.8842 1300 632023.70398 4806430.0392 1300 
632036.9311 4806464.9392 1300 632068.13789 4806469.016 1300 632070.66357 4806517.5611 1300 
632122.18815 4806549.7554 1300 632139.96492 4806529.3163 1300 632174.85701 4806523.0666 1300 
632191.6248 4806554.581 1300 632256.84129 4806597.4214 1300 632284.23411 4806618.7452 1300 
632346.78998 4806619.9713 1300 632391.49241 4806645.1013 1300 632443.61807 4806646.1238 1300 
632467.4004 4806674.2991 1300 632505.49401 4806681.9795 1300 632507.94837 4806733.9898 1300 
632567.56536 4806707.4405 1300 632595.16884 4806718.3817 1300 632601.36842 4806756.6114 1300 
632636.32796 4806746.8991 1300 632693.22003 4806682.2005 1300 632745.27732 4806686.6904 1300 
[...]
CELL_DATA 1
SCALARS Elev double
LOOKUP_TABLE default
1300 
