# vtk DataFile Version 5.1
vtk output
ASCII
DATASET UNSTRUCTURED_GRID
POINTS 411 double
545984.42798 4864173.3919 750 546046.86852 4864143.9359 750 546082.51191 4864135.5866 750 
546109.87502 4864122.0595 750 546135.48318 4864101.1895 750 546144.68575 4864098.4323 750 
546156.7114 4864099.5046 750 546172.91364 4864087.5661 750 546171.62997 4864074.7839 750 
546208.13586 4864026.8441 750 546219.66564 4864021.9151 750 546255.68693 4864030.8633 750 
546264.85691 4864036.2476 750 546290.18436 4864030.4043 750 546322.15388 4864013.7558 750 
546331.92602 4863993.8534 750 546354.22879 4863978.6147 750 546383.7625 4863965.9591 750 
546455.42321 4863957.0309 750 546502.10335 4863930.7675 750 546512.52566 4863902.9615 750 
546555.86795 4863909.6968 750 546597.80852 4863895.4188 750 546623.62949 4863882.305 750 
546635.20251 4863865.6035 750 546622.46328 4863841.5223 750 546602.35387 4863811.8135 750 
546597.61006 4863792.3092 750 546635.96043 4863739.5975 750 546654.908 4863705.1208 750 
546662.83668 4863698.69 750 546678.69247 4863681.4966 750 546702.46028 4863643.1664 750 
546740.02858 4863600.2796 750 546773.89365 4863569.1628 750 546851.59584 4863553.4949 750 
546879.26113 4863563.6536 750 546904.0455 4863600.8714 750 546918.79032 4863642.0947 750 
546932.91047 4863641.1172 750 546946.02679 4863626.5819 750 546939.01296 4863569.5078 750 
546977.63684 4863561.4731 750 547028.3348 4863543.2946 750 547085.3603 4863505.746 750 
547138.58801 4863469.4815 750 547139.0253 4863407.9729 750 547155.36891 4863364.2267 750 
547175.04699 4863366.3993 750 547195.78933 4863382.5968 750 547198.80641 4863426.8028 750 
547210.70052 4863446.5028 750 547221.29232 4863448.3998 750 547273.06876 4863421.0563 750 
547274.68079 4863401.0192 750 547270.77811 4863383.131 750 547260.65142 4863366.6535 750 
547249.39654 4863355.2661 750 547252.03542 4863344.3443 750 547260.6186 4863328.4555 750 
547300.04581 4863295.8482 750 547348.16534 4863253.5288 750 547377.93243 4863234.7814 750 
547432.95498 4863219.7469 750 547491.40912 4863207.6363 750 547538.80901 4863197.6463 750 
547594.21308 4863208.9732 750 547674.90207 4863241.064 750 547689.14147 4863253.7842 750 
547714.68098 4863287.1341 750 547760.1912 4863322.1163 750 547816.59046 4863372.261 750 
547844.64816 4863416.9589 750 547829.87904 4863496.68 750 547859.15046 4863635.6206 750 
547888.62998 4863744.4622 750 547894.53413 4863843.9702 750 547907.07949 4863940.9049 750 
547931.17557 4864064.5583 750 547950.77535 4864139.3851 750 547988.63931 4864212.767 750 
548047.57191 4864315.2251 750 548087.07674 4864371.2589 750 548140.22433 4864433.1789 750 
548208.77214 4864467.8652 750 548301.08799 4864473.8021 750 548350.46146 4864479.4158 750 
548414.97183 4864494.0929 750 548485.41168 4864477.2471 750 548552.8948 4864449.873 750 
548609.73101 4864421.8883 750 548691.93348 4864356.7477 750 548744.73613 4864308.7414 750 
548788.45611 4864256.9922 750 548818.79808 4864213.564 750 548834.99994 4864181.6055 750 
548857.41053 4864132.8542 750 548879.68923 4864087.8785 750 548895.9646 4864043.8583 750 
548922.56423 4863975.8337 750 548944.67345 4863927.8469 750 548972.29715 4863918.021 750 
549007.00643 4863930.3178 750 549040.1817 4863954.6326 750 549049.98669 4864000.8558 750 
549071.28005 4864063.203 750 549078.11262 4864119.4342 750 549103.77751 4864177.8153 750 
549117.68765 4864258.1684 750 549136.08861 4864318.4951 750 549174.83348 4864372.9526 750 
549219.30644 4864437.4939 750 549276.8516 4864498.1118 750 549350.27775 4864568.8784 750 
549390.46412 4864623.348 750 549407.41678 4864683.6648 750 549399.72037 4864743.7978 750 
549393.3641 4864817.9916 750 549390.00321 4864880.1563 750 549398.01566 4864972.5065 750 
549424.9175 4865058.9886 750 549460.71329 4865119.4461 750 549526.80023 4865200.19 750 
549603.21815 4865256.9423 750 549692.76665 4865301.7536 750 549765.10339 4865322.3563 750 
549827.42305 4865324.835 750 549883.90297 4865333.2795 750 549969.44667 4865331.9247 750 
550082.58783 4865324.7482 750 550165.28005 4865317.3542 750 550246.43665 4865321.9788 750 
550298.72565 4865308.3359 750 550329.32727 4865288.4973 750 550390.53012 4865246.8323 750 
550439.80861 4865249.2176 750 550500.80658 4865235.6314 750 550557.5692 4865205.9745 750 
550585.34331 4865176.0856 750 550641.97692 4865164.4778 750 550632.02986 4865136.4446 750 
550597.86765 4865055.7999 750 550542.54021 4865085.4675 750 550494.40736 4865123.232 750 
550385.55926 4865138.4536 750 550337.53452 4865162.1582 750 550288.27052 4865157.7745 750 
550211.5764 4865139.1324 750 550005.68379 4865141.5964 750 549851.94517 4865148.4576 750 
549792.61154 4865133.9719 750 549739.33643 4865085.4105 750 549684.41225 4865062.9283 750 
549636.73511 4865040.5008 750 549621.16306 4864990.2347 750 549595.61807 4864915.8023 750 
549594.72882 4864841.5656 750 549572.18542 4864753.1161 750 549547.93473 4864700.7638 750 
549522.08792 4864666.4601 750 549520.85303 4864638.3605 750 549541.24875 4864624.4733 750 
549581.80144 4864630.7967 750 549632.5145 4864635.186 750 549643.05857 4864583.1051 750 
549627.36532 4864548.8771 750 549623.69088 4864458.5584 750 549593.41097 4864436.2616 750 
549551.52425 4864413.8781 750 549512.54292 4864391.5166 750 549491.09807 4864351.2369 750 
549452.28779 4864304.7965 750 549406.46097 4864228.2144 750 549381.81031 4864228.0307 750 
549335.90749 4864161.4784 750 549332.0346 4864097.2495 750 549316.4729 4864044.9628 750 
549312.65945 4863972.7038 750 549323.17211 4863924.632 750 549347.92036 4863910.7765 750 
549369.73414 4863902.9084 750 549365.60739 4863872.7881 750 549335.3239 4863850.4925 750 
549321.04236 4863820.2855 750 549312.6322 4863782.1028 750 549337.44072 4863760.2172 750 
549360.82744 4863736.3107 750 549359.71795 4863690.1628 750 549349.77216 4863661.9985 750 
549327.62373 4863637.0533 750 549319.95461 4863623.3343 750 549321.46447 4863616.7812 750 
549334.15023 4863609.0449 750 549340.34331 4863611.8234 750 549347.57774 4863623.5399 750 
549354.96155 4863638.9118 750 549360.80831 4863639.6773 750 549372.70671 4863613.6971 750 
549381.35041 4863607.5747 750 549389.95623 4863606.5392 750 549398.43303 4863598.0386 750 
549404.53638 4863589.1539 750 549405.56848 4863548.6867 750 549409.41932 4863546.8938 750 
549408.82188 4863529.0288 750 549392.45598 4863516.6889 750 549389.44297 4863503.0045 750 
549384.01707 4863495.3001 750 549370.27175 4863498.6632 750 549361.80975 4863505.1646 750 
549332.611 4863495.4616 750 549332.83084 4863490.7316 750 549340.83123 4863488.0032 750 
549342.07937 4863482.1034 750 549337.09031 4863483.6546 750 549335.50295 4863475.8011 750 
549337.96597 4863464.1568 750 549358.41321 4863465.3419 750 549373.64273 4863458.8909 750 
549371.38258 4863455.142 750 549348.11609 4863459.5228 750 549339.07829 4863457.0897 750 
549332.32542 4863460.4716 750 549324.13113 4863479.5485 750 549317.15865 4863483.3175 750 
549316.5464 4863491.1547 750 549317.7888 4863496.8175 750 549308.25582 4863524.2704 750 
549292.87887 4863550.5803 750 549291.54968 4863556.5906 750 549296.99729 4863562.4624 750 
549305.52858 4863571.4561 750 549306.56335 4863579.1278 750 549297.69977 4863588.914 750 
549285.23426 4863588.6214 750 549239.25115 4863644.5603 750 549227.37063 4863648.7484 750 
549212.87056 4863650.018 750 549193.13639 4863642.6074 750 549143.15294 4863614.5463 750 
549164.70161 4863588.393 750 549112.51245 4863585.9957 750 549097.85102 4863607.9573 750 
549063.00655 4863613.7195 750 548952.62758 4863625.7769 750 548887.37567 4863639.8904 750 
548839.97482 4863673.0183 750 548800.72602 4863695.8991 750 548761.09688 4863769.4374 750 
548725.41246 4863812.0935 750 548708.86285 4863869.4853 750 548698.07531 4863902.0281 750 
548696.49865 4863948.3671 750 548707.46275 4863975.9159 750 548705.30406 4864016.2416 750 
548687.03776 4864053.8832 750 548654.98539 4864109.4397 750 548607.80473 4864114.2473 750 
548577.79797 4864144.9278 750 548540.5516 4864148.0871 750 548516.80664 4864171.0941 750 
548487.69662 4864164.8721 750 548455.06279 4864131.1562 750 548409.30045 4864111.0731 750 
548379.61405 4864097.9831 750 548349.09836 4864114.9323 750 548315.56224 4864118.9752 750 
548267.94959 4864097.1691 750 548247.0936 4864065.2617 750 548246.19302 4864018.0382 750 
548251.78483 4863931.3757 750 548233.92059 4863914.085 750 548218.08095 4863874.4835 750 
548212.30657 4863815.2065 750 548210.00616 4863791.5314 750 548202.85274 4863750.7602 750 
548156.96589 4863661.1467 750 548125.09728 4863607.7005 750 548116.27736 4863539.8157 750 
548118.38129 4863421.3723 750 548120.64177 4863358.7994 750 548127.66803 4863355.285 750 
548137.70328 4863358.6345 750 548143.83444 4863364.5103 750 548160.02579 4863359.2408 750 
548160.43603 4863327.0773 750 548155.17887 4863309.1898 750 548153.88411 4863297.3289 750 
548133.4401 4863294.5037 750 548119.5952 4863282.8628 750 548105.48014 4863264.189 750 
548092.72381 4863214.2472 750 548089.64205 4863200.7962 750 548091.80783 4863180.0303 750 
548090.32863 4863157.0498 750 548093.62965 4863134.7371 750 548100.77628 4863129.0465 750 
548109.39297 4863126.5655 750 548120.771 4863126.3704 750 548130.46137 4863121.9756 750 
548141.23636 4863105.3152 750 548141.43134 4863088.4114 750 548129.75366 4863057.9817 750 
548109.81702 4863039.3435 750 548076.49914 4863010.3452 750 548054.11965 4862991.9561 750 
548039.53025 4862988.7737 750 548013.68943 4862991.5521 750 547987.60224 4862986.2207 750 
547978.30142 4862972.2693 750 547974.00949 4862961.7975 750 547902.42451 4862943.9749 750 
547893.1303 4862983.5495 750 547869.58184 4862981.3135 750 547846.61323 4862953.2353 750 
547829.6546 4862928.977 750 547775.22803 4862914.3119 750 547741.09397 4862920.3305 750 
547700.0197 4862904.4849 750 547677.51005 4862902.8902 750 547638.87577 4862897.1811 750 
547601.34981 4862900.366 750 547556.84627 4862906.9776 750 547502.81032 4862912.777 750 
547444.7557 4862923.6685 750 547430.09144 4862929.7726 750 547376.72589 4862940.676 750 
547344.85673 4862953.4105 750 547257.31315 4863000.3138 750 547209.68628 4863024.0106 750 
547183.68364 4863031.5562 750 547175.03345 4863038.7809 750 547156.14428 4863045.2109 750 
547141.08641 4863053.6786 750 547130.29201 4863054.2128 750 547112.0115 4863051.8282 750 
547097.96091 4863047.3521 750 547059.49881 4863053.6434 750 547017.53248 4863067.263 750 
546962.27217 4863093.1622 750 546933.7816 4863111.9982 750 546915.28863 4863132.8489 750 
546875.53152 4863153.2049 750 546825.92404 4863199.649 750 546784.62987 4863228.5806 750 
546744.10177 4863267.3366 750 546723.66499 4863286.1859 750 546717.88665 4863298.4186 750 
546670.37929 4863349.0661 750 546647.01741 4863361.5306 750 546622.91298 4863381.4207 750 
546614.54136 4863392.569 750 546591.30174 4863402.5243 750 546563.39626 4863417.2674 750 
546526.57196 4863434.2362 750 546467.23055 4863457.8116 750 546415.36291 4863476.9303 750 
546372.89868 4863493.4495 750 546358.99818 4863506.6143 750 546349.43682 4863504.2927 750 
546273.92483 4863569.742 750 546225.48887 4863632.293 750 546184.69199 4863667.8183 750 
546129.49977 4863698.9785 750 546032.68808 4863738.7358 750 545932.57519 4863788.1904 750 
545802.84226 4863870.0636 750 545791.92393 4863887.593 750 545760.63467 4863908.1474 750 
545748.39276 4863934.8646 750 545704.0801 4863951.1975 750 545621.71277 4864010.1314 750 
545570.36522 4864045.6766 750 545465.47644 4864092.7506 750 545348.68404 4864131.6921 750 
545338.2031 4864165.3196 750 545287.5617 4864206.0034 750 545244.28562 4864197.9217 750 
545243.31712 4864203.391 750 545236.67293 4864257.1488 750 545233.85756 4864256.8297 750 
545229.61336 4864278.8596 750 545224.89555 4864297.3653 750 545215.19957 4864319.6024 750 
545218.08905 4864320.8217 750 545140.20444 4864474.8362 750 545148.864 4864478.5938 750 
545157.92375 4864482.5208 750 545188.71942 4864484.2413 750 545242.297 4864479.864 750 
545274.03655 4864463.2645 750 545297.08078 4864456.391 750 545294.50771 4864491.1056 750 
545355.70273 4864503.1755 750 545388.93082 4864497.805 750 545409.75406 4864490.5724 750 
545421.2606 4864477.1116 750 545425.6882 4864463.5356 750 545427.83616 4864423.0202 750 
545434.54824 4864408.7491 750 545482.87248 4864387.477 750 545516.60868 4864361.9843 750 
545582.32467 4864343.5759 750 545679.5511 4864309.513 750 545736.74936 4864280.9065 750 
545758.14782 4864275.3895 750 545772.83967 4864282.0664 750 545798.39223 4864279.455 750 
545907.39789 4864244.0662 750 545959.16898 4864223.8989 750 545984.42798 4864173.3919 750 

CELLS 2 411
OFFSETS vtktypeint64
0 411 
CONNECTIVITY vtktypeint64
0 1 2 3 4 5 6 7 8 
9 10 11 12 13 14 15 16 17 
18 19 20 21 22 23 24 25 26 
27 28 29 30 31 32 33 34 35 
36 37 38 39 40 41 42 43 44 
45 46 47 48 49 50 51 52 53 
54 55 56 57 58 59 60 61 62 
63 64 65 66 67 68 69 70 71 
72 73 74 75 76 77 78 79 80 
81 82 83 84 85 86 87 88 89 
90 91 92 93 94 95 96 97 98 
99 100 101 102 103 104 105 106 107 
108 109 110 111 112 113 114 115 116 
117 118 119 120 121 122 123 124 125 
126 127 128 129 130 131 132 133 134 
135 136 137 138 139 140 141 142 143 
144 145 146 147 148 149 150 151 152 
153 154 155 156 157 158 159 160 161 
162 163 164 165 166 167 168 169 170 
171 172 173 174 175 176 177 178 179 
180 181 182 183 184 185 186 187 188 
189 190 191 192 193 194 195 196 197 
198 199 200 201 202 203 204 205 206 
207 208 209 210 211 212 213 214 215 
216 217 218 219 220 221 222 223 224 
225 226 227 228 229 230 231 232 233 
234 235 236 237 238 239 240 241 242 
243 244 245 246 247 248 249 250 251 
252 253 254 255 256 257 258 259 260 
261 262 263 264 265 266 267 268 269 
270 271 272 273 274 275 276 277 278 
279 280 281 282 283 284 285 286 287 
288 289 290 291 292 293 294 295 296 
297 298 299 300 301 302 303 304 305 
306 307 308 309 310 311 312 313 314 
315 316 317 318 319 320 321 322 323 
324 325 326 327 328 329 330 331 332 
333 334 335 336 337 338 339 340 341 
342 343 344 345 346 347 348 349 350 
351 352 353 354 355 356 357 358 359 
360 361 362 363 364 365 366 367 368 
369 370 371 372 373 374 375 376 377 
378 379 380 381 382 383 384 385 386 
387 388 389 390 391 392 393 394 395 
396 397 398 399 400 401 402 403 404 
405 406 407 408 409 410 
CELL_TYPES 1
4

CELL_DATA 1
SCALARS Elev double
LOOKUP_TABLE default
750 
