# vtk DataFile Version 5.1
vtk output
ASCII
DATASET UNSTRUCTURED_GRID
POINTS 351 double
555716.14429 4835538.1028 700 555578.38808 4835563.9911 700 555435.12869 4835591.5692 700 
555378.98363 4835595.5136 700 555293.31438 4835593.7052 700 555225.91629 4835635.5436 700 
555159.90559 4835659.8007 700 555053.96638 4835750.4045 700 554981.97239 4835772.1039 700 
554811.82623 4835789.8002 700 554647.71046 4835691.1718 700 554515.34433 4835652.1615 700 
554468.9074 4835604.601 700 554400.32691 4835608.1191 700 554327.05631 4835689.8147 700 
554290.48313 4835751.8941 700 554256.67367 4835789.3943 700 554181.70551 4835841.2668 700 
554102.31359 4835862.127 700 554017.98968 4835869.8534 700 553782.9393 4835738.7859 700 
553638.25164 4835735.8691 700 553530.69131 4835760.8642 700 553502.7941 4835790.4852 700 
553261.34743 4835936.6462 700 553223.90359 4835987.9951 700 553208.36841 4836032.6433 700 
553221.10709 4836050.6934 700 553208.62078 4836086.0361 700 553107.1273 4836124.57 700 
553054.3218 4836169.6891 700 552993.59721 4836209.1591 700 552946.08811 4836219.823 700 
552935.01024 4836219.0134 700 552905.66677 4836206.8301 700 552886.32668 4836194.7262 700 
552846.92816 4836144.0783 700 552821.49651 4836097.895 700 552761.12975 4836079.8474 700 
552720.25435 4836101.8054 700 552683.71742 4836126.6856 700 552655.73814 4836150.0007 700 
552648.21639 4836181.8071 700 552642.7437 4836207.2876 700 552602.53125 4836237.3485 700 
552522.22647 4836316.187 700 552428.90571 4836314.7327 700 552256.96472 4836172.9406 700 
552140.74443 4836017.8592 700 552087.29134 4836012.3224 700 551985.42742 4836015.2506 700 
551938.02758 4836058.61 700 551849.48096 4836187.4843 700 551730.42339 4836263.5883 700 
551699.55823 4836276.9888 700 551666.21564 4836290.748 700 551599.08322 4836274.9466 700 
551518.17792 4836241.8797 700 551440.53427 4836169.2986 700 551408.98854 4836063.6188 700 
551319.72912 4836054.5809 700 551224.06497 4836137.593 700 551139.1026 4836165.5096 700 
551045.75374 4836134.7413 700 550885.34506 4836069.5991 700 550780.70778 4836131.1908 700 
550651.87087 4836170.6536 700 550474.79018 4836278.317 700 550456.64731 4836311.0674 700 
550397.29437 4836392.2216 700 550364.67183 4836408.2251 700 550261.26334 4836379.5467 700 
550225.04477 4836374.2321 700 550135.89237 4836369.5868 700 550111.15859 4836355.94 700 
550069.74413 4836345.8225 700 550045.57887 4836325.1162 700 550018.37806 4836290.9925 700 
550006.38441 4836247.6973 700 550007.03986 4836219.3355 700 550031.18279 4836175.211 700 
550039.29588 4836142.4289 700 550010.51365 4836123.4764 700 549971.24163 4836130.6577 700 
549935.10248 4836132.8535 700 549872.1518 4836136.0823 700 549838.21937 4836137.4843 700 
549815.39234 4836156.6178 700 549809.50813 4836177.1104 700 549778.32311 4836196.0708 700 
549707.40741 4836233.0843 700 549691.71612 4836232.5678 700 549657.32029 4836277.9946 700 
549611.36671 4836311.2848 700 549548.28125 4836349.2799 700 549465.57975 4836367.1605 700 
549442.7472 4836362.2157 700 549406.05265 4836339.4088 700 549375.3015 4836302.0517 700 
549350.61118 4836259.3416 700 549311.02176 4836225.607 700 549256.7204 4836195.1296 700 
549224.28731 4836197.7008 700 549179.36586 4836202.6794 700 549130.82756 4836201.8228 700 
549112.59098 4836209.7968 700 549095.45431 4836246.9342 700 549057.2923 4836273.3771 700 
548998.95838 4836282.6789 700 548945.9045 4836283.19 700 548900.50374 4836267.8415 700 
548866.88995 4836251.1467 700 548830.518 4836234.5985 700 548777.56811 4836227.4369 700 
548735.27115 4836227.4395 700 548667.4999 4836216.5056 700 548630.50075 4836197.4327 700 
548586.22684 4836157.7374 700 548567.80038 4836102.0253 700 548557.8534 4836071.9537 700 
548493.71605 4836006.536 700 548478.14366 4835990.6515 700 548416.08146 4835939.0331 700 
548405.91264 4835930.5739 700 548382.61024 4835912.2679 700 548328.79624 4835903.7931 700 
548299.78113 4835912.9465 700 548243.16179 4835939.0941 700 548206.21868 4835959.9639 700 
548153.41442 4835962.4268 700 548147.53568 4835962.6955 700 548117.39904 4835918.2737 700 
548087.15685 4835863.8108 700 548068.90782 4835830.9481 700 548049.08722 4835828.2955 700 
548028.24979 4835799.9681 700 547979.46525 4835784.7127 700 547787.92622 4835840.2301 700 
547749.0712 4835855.7686 700 547742.54013 4835863.841 700 547737.35104 4835870.257 700 
547645.76507 4835907.389 700 547568.55265 4835929.9414 700 547498.38478 4835895.9781 700 
547405.63401 4835821.3159 700 547206.24774 4835815.363 700 547043.13984 4835856.2193 700 
546835.57529 4836067.3674 700 546594.32596 4836318.2378 700 546583.64136 4836422.922 700 
546627.31856 4836551.9089 700 546603.90757 4836651.7506 700 546532.63716 4836709.4646 700 
546489.23679 4836766.6289 700 546505.13825 4836961.5736 700 546477.38487 4837018.6802 700 
546344.20358 4837107.5425 700 546298.9811 4837172.3701 700 546300.77218 4837224.4842 700 
546371.98557 4837319.1628 700 546618.24309 4837533.1587 700 546862.44203 4837589.0671 700 
547073.65785 4837474.4634 700 547269.72561 4837393.346 700 547490.55624 4837388.4915 700 
547685.70652 4837492.4517 700 547847.8952 4837757.4631 700 547880.34083 4837864.4982 700 
547914.30692 4837923.4187 700 548012.81262 4837922.3929 700 548100.44246 4837859.2368 700 
548172.21832 4837798.7441 700 548209.12364 4837753.7722 700 548211.26344 4837676.1068 700 
548341.18893 4837556.892 700 548425.39417 4837534.777 700 548529.3073 4837549.0809 700 
548589.36873 4837579.9165 700 548709.00131 4837744.0348 700 548713.35072 4837845.0273 700 
548736.59296 4837900.3642 700 548837.66888 4837993.2773 700 548907.88518 4838035.4191 700 
548954.73739 4838051.2006 700 549002.08698 4838002.411 700 549045.28201 4837914.7397 700 
549094.20652 4837836.0851 700 549280.99384 4837711.6972 700 549388.99404 4837645.6646 700 
549454.27181 4837618.9689 700 549525.64433 4837633.4475 700 549568.85601 4837563.2506 700 
549656.87699 4837570.5347 700 549705.6791 4837602.8628 700 549751.06496 4837593.8485 700 
549836.95657 4837586.1471 700 549917.39533 4837601.7526 700 549978.32991 4837589.3018 700 
549986.20005 4837549.9648 700 549998.79176 4837534.5316 700 550054.41772 4837517.5213 700 
550131.47861 4837530.0719 700 550179.92729 4837554.4706 700 550203.89394 4837594.5241 700 
550250.23964 4837727.0325 700 550311.19443 4837781.437 700 550377.56998 4837806.1831 700 
550456.50428 4837810.2661 700 550583.55507 4837750.1165 700 550633.03178 4837726.6891 700 
550735.50479 4837702.5868 700 550782.3705 4837705.7638 700 550862.96212 4837720.9599 700 
550946.22725 4837724.7706 700 551063.3003 4837705.5383 700 551164.81659 4837682.4459 700 
551230.17692 4837666.9416 700 551303.83763 4837646.348 700 551329.01168 4837643.709 700 
551343.93902 4837643.5682 700 551356.46806 4837649.2734 700 551381.59798 4837668.1038 700 
551402.02522 4837676.9575 700 551424.57471 4837684.4171 700 551516.31037 4837696.6302 700 
551583.18457 4837689.7487 700 551698.51321 4837654.6535 700 551724.52044 4837631.8523 700 
551756.47235 4837606.3761 700 551772.40457 4837590.9721 700 551784.17299 4837574.1475 700 
551820.63453 4837513.8754 700 551848.62219 4837463.4339 700 551848.42904 4837458.2011 700 
551844.4146 4837447.8961 700 551839.28739 4837429.3412 700 551846.3142 4837395.2198 700 
551850.6916 4837368.0864 700 551855.43069 4837356.672 700 551861.10894 4837353.0285 700 
551868.22715 4837345.5866 700 551874.62256 4837332.619 700 551874.26108 4837324.1528 700 
551880.55076 4837308.1966 700 551889.1276 4837289.3703 700 551904.16587 4837272.9712 700 
551941.1949 4837255.1546 700 551954.95061 4837244.099 700 551976.8886 4837238.0608 700 
552005.35648 4837241.1922 700 552039.98511 4837234.631 700 552075.08205 4837227.9736 700 
552100.40609 4837194.9613 700 552113.53182 4837174.8158 700 552143.57127 4837150.0929 700 
552268.50059 4837098.9327 700 552362.96019 4837072.9599 700 552431.86189 4837054.1184 700 
552552.20979 4837035.6706 700 552624.49881 4837080.1892 700 552682.10637 4837122.005 700 
552733.66847 4837163.7735 700 552752.96129 4837184.6068 700 552850.98799 4837252.9887 700 
552902.15826 4837234.0119 700 552942.00733 4837224.842 700 552962.28109 4837230.6116 700 
552975.82418 4837213.0478 700 553047.50953 4837170.5326 700 553088.72171 4837134.9289 700 
553125.92574 4837096.6169 700 553170.86358 4837045.6935 700 553281.3215 4836966.8698 700 
553309.03583 4836961.4817 700 553343.71364 4836950.1294 700 553434.01943 4836958.6031 700 
553504.47799 4836961.3213 700 553530.02208 4836957.2163 700 553585.03783 4836944.7286 700 
553632.06759 4836902.8883 700 553688.78298 4836840.4339 700 553807.8293 4836737.2969 700 
554014.67057 4836628.0732 700 554114.03221 4836496.1267 700 554145.52812 4836451.132 700 
554199.88125 4836413.6533 700 554255.01111 4836387.8214 700 554303.09253 4836378.2932 700 
554373.76724 4836355.1654 700 554485.43882 4836342.2906 700 554535.98186 4836348.3005 700 
554582.88485 4836377.5612 700 554603.62023 4836407.908 700 554621.85568 4836423.5511 700 
554667.1516 4836437.2829 700 554710.88007 4836430.7431 700 554750.80003 4836413.8319 700 
554775.20459 4836390.7627 700 554801.31404 4836371.1619 700 554820.62328 4836336.411 700 
554836.83928 4836310.2539 700 554856.61478 4836243.2746 700 554837.13094 4836181.2936 700 
554839.20861 4836146.1684 700 554902.15228 4836109.8431 700 554998.91073 4836080.8715 700 
555085.89433 4836102.4352 700 555214.59484 4836074.2853 700 555268.51775 4836022.6724 700 
555281.95346 4835964.5164 700 555275.96538 4835885.2967 700 555310.44849 4835819.6288 700 
555349.29356 4835797.8251 700 555414.67033 4835756.5932 700 555531.79325 4835701.3413 700 
555606.01471 4835687.4411 700 555686.56724 4835651.9915 700 555709.53845 4835600.4022 700 
555693.15036 4835575.9304 700 555693.33151 4835570.6339 700 555697.54331 4835572.1684 700 
555701.06543 4835574.2303 700 555704.92968 4835584.5808 700 555708.20037 4835584.8858 700 
555716.79017 4835567.0307 700 555728.02916 4835559.2495 700 555731.48428 4835552.9029 700 
555734.41065 4835552.9273 700 555737.32301 4835551.7298 700 555738.70351 4835553.4406 700 
555743.91336 4835553.2397 700 555746.90547 4835557.9518 700 555748.87828 4835562.1111 700 
555750.37496 4835562.4568 700 555753.11593 4835564.4122 700 555753.5666 4835559.6733 700 
555752.6306 4835557.8329 700 555755.19655 4835550.8014 700 555758.4209 4835546.9963 700 
555767.83818 4835546.9194 700 555777.12813 4835543.7425 700 555781.30599 4835540.6452 700 
555790.66193 4835539.2238 700 555792.15148 4835537.5257 700 555791.59875 4835537.099 700 
555791.5702 4835535.6882 700 555782.85529 4835535.6489 700 555760.94315 4835544.2406 700 
555736.61221 4835544.1489 700 555730.41955 4835541.3539 700 555716.14429 4835538.1028 700 

CELLS 2 351
OFFSETS vtktypeint64
0 351 
CONNECTIVITY vtktypeint64
0 1 2 3 4 5 6 7 8 
9 10 11 12 13 14 15 16 17 
18 19 20 21 22 23 24 25 26 
27 28 29 30 31 32 33 34 35 
36 37 38 39 40 41 42 43 44 
45 46 47 48 49 50 51 52 53 
54 55 56 57 58 59 60 61 62 
63 64 65 66 67 68 69 70 71 
72 73 74 75 76 77 78 79 80 
81 82 83 84 85 86 87 88 89 
90 91 92 93 94 95 96 97 98 
99 100 101 102 103 104 105 106 107 
108 109 110 111 112 113 114 115 116 
117 118 119 120 121 122 123 124 125 
126 127 128 129 130 131 132 133 134 
135 136 137 138 139 140 141 142 143 
144 145 146 147 148 149 150 151 152 
153 154 155 156 157 158 159 160 161 
162 163 164 165 166 167 168 169 170 
171 172 173 174 175 176 177 178 179 
180 181 182 183 184 185 186 187 188 
189 190 191 192 193 194 195 196 197 
198 199 200 201 202 203 204 205 206 
207 208 209 210 211 212 213 214 215 
216 217 218 219 220 221 222 223 224 
225 226 227 228 229 230 231 232 233 
234 235 236 237 238 239 240 241 242 
243 244 245 246 247 248 249 250 251 
252 253 254 255 256 257 258 259 260 
261 262 263 264 265 266 267 268 269 
270 271 272 273 274 275 276 277 278 
279 280 281 282 283 284 285 286 287 
288 289 290 291 292 293 294 295 296 
297 298 299 300 301 302 303 304 305 
306 307 308 309 310 311 312 313 314 
315 316 317 318 319 320 321 322 323 
324 325 326 327 328 329 330 331 332 
333 334 335 336 337 338 339 340 341 
342 343 344 345 346 347 348 349 350 

CELL_TYPES 1
4

CELL_DATA 1
SCALARS Elev double
LOOKUP_TABLE default
700 
