# vtk DataFile Version 5.1
vtk output
ASCII
DATASET UNSTRUCTURED_GRID
POINTS 1533 double
581498.1584 4831158.3273 900 581502.52374 4831158.3027 900 581506.74223 4831132.5506 900 
581503.46925 4831089.8791 900 581474.72434 4831061.0824 900 581428.1597 4831029.9587 900 
581393.43831 4831017.5181 900 581356.77086 4831010.5079 900 581319.17443 4831005.575 900 
581242.48806 4831005.0777 900 581167.50801 4831000.9363 900 581114.0004 4830983.3155 900 
581086.13504 4830961.6735 900 581072.83515 4830941.8962 900 581055.37281 4830912.6936 900 
581064.11425 4830907.7787 900 581054.76086 4830889.9153 900 581030.74151 4830815.0916 900 
581016.50312 4830732.1 900 580989.44878 4830678.6333 900 580979.89955 4830609.5054 900 
580953.08647 4830535.337 900 580948.97928 4830474.5613 900 580933.89513 4830403.9782 900 
580895.09224 4830348.2929 900 580836.02339 4830307.5588 900 580774.65609 4830284.7254 900 
580712.45309 4830273.6234 900 580673.00773 4830271.0823 900 580653.89397 4830247.3815 900 
580644.0332 4830203.7872 900 580625.43862 4830194.5883 900 580627.4076 4830146.3045 900 
580645.05485 4830118.9031 900 580666.67868 4830048.7626 900 580692.57041 4830026.9921 900 
580730.0228 4829965.3288 900 580781.40515 4829896.9246 900 580838.92581 4829836.8812 900 
580910.3603 4829772.1633 900 580936.95613 4829749.7136 900 581005.49148 4829695.3251 900 
581049.93149 4829686.1987 900 581089.03676 4829660.4353 900 581135.58422 4829648.5803 900 
581156.21174 4829661.2485 900 581160.00761 4829633.6917 900 581186.68018 4829605.0236 900 
581216.15422 4829573.6237 900 581211.14594 4829529.3875 900 581216.41372 4829494.9396 900 
581261.78365 4829466.4983 900 581325.54899 4829463.1397 900 581368.95318 4829482.9941 900 
581413.90467 4829489.0605 900 581469.37543 4829484.2141 900 581530.57472 4829464.2423 900 
581580.7371 4829440.6934 900 581633.26789 4829393.0143 900 581675.47292 4829340.3779 900 
581681.16375 4829271.4236 900 581656.31683 4829206.9291 900 581667.18995 4829167.7068 900 
581680.58281 4829091.9374 900 581648.03321 4829034.247 900 581601.20693 4829010.8948 900 
581585.15385 4828964.4578 900 581538.17582 4828953.5226 900 581491.45726 4828921.8972 900 
581465.80195 4828923.6514 900 581438.33257 4828903.9901 900 581421.26585 4828883.078 900 
581393.62854 4828877.2218 900 581338.21175 4828876.5491 900 581320.74492 4828855.3213 900 
581320.78846 4828812.4793 900 581318.87579 4828763.2266 900 581344.62943 4828728.8052 900 
581341.48867 4828687.6463 900 581357.49164 4828653.2843 900 581381.6523 4828607.847 900 
581422.32946 4828566.9202 900 581474.59937 4828484.7027 900 581529.20207 4828438.4252 900 
581564.37867 4828393.9778 900 581599.49648 4828355.0616 900 581619.7307 4828286.2622 900 
581603.11145 4828171.4613 900 581571.62022 4828083.3937 900 581545.86323 4828036.8278 900 
581551.62632 4828018.9478 900 581529.80776 4827989.6801 900 581495.40154 4827969.9344 900 
581463.5704 4827966.7818 900 581431.03663 4827964.3205 900 581391.77896 4827945.2051 900 
581373.99885 4827925.6508 900 581348.348 4827926.728 900 581304.64032 4827931.7184 900 
581286.25748 4827905.2591 900 581256.75113 4827881.4308 900 581212.54981 4827869.8431 900 
581179.73095 4827833.5456 900 581178.61285 4827817.2148 900 581175.06431 4827795.6007 900 
581167.99622 4827772.6443 900 581154.26794 4827703.6881 900 581128.00163 4827644.8105 900 
581099.38915 4827580.9727 900 581048.48026 4827514.3553 900 580998.67048 4827450.2285 900 
580931.91487 4827412.8338 900 580892.24465 4827382.6976 900 580871.72433 4827344.4396 900 
580862.97905 4827315.8318 900 580850.19234 4827242.7557 900 580862.97525 4827223.749 900 
580887.90044 4827197.369 900 580940.77062 4827174.0587 900 580962.78707 4827162.628 900 
580991.34077 4827129.3165 900 581032.82943 4827053.8077 900 581051.28788 4827022.185 900 
581108.60433 4826959.8306 900 581187.31672 4826920.8285 900 581232.18512 4826935.1898 900 
581244.21363 4826971.9353 900 581232.8129 4826997.3449 900 581269.63407 4826989.5047 900 
581301.06838 4826969.1698 900 581327.32526 4826975.0086 900 581378.5 4826983.9157 900 
581443.03365 4826976.4127 900 581516.15746 4826939.0349 900 581556.01967 4826921.5139 900 
581589.84711 4826870.4744 900 581662.40097 4826773.3096 900 581690.97185 4826703.2124 900 
581746.96199 4826658.3195 900 581802.38908 4826658.9952 900 581852.19402 4826666.5118 900 
581878.60648 4826716.5523 900 581886.95808 4826770.5156 900 581894.68561 4826875.578 900 
581923.2387 4826920.8019 900 581919.48048 4826944.9264 900 581943.43456 4826969.3894 900 
581974.69429 4826962.8624 900 582096.7629 4827010.6191 900 582170.26363 4827006.6874 900 
582199.36419 4827007.0439 900 582231.51298 4827043.2494 900 582272.66858 4827081.6537 900 
582280.10381 4827090.8977 900 582303.55638 4827100.1606 900 582306.4403 4827125.6771 900 
582317.15047 4827112.7792 900 582323.02226 4827113.8954 900 582330.81933 4827115.3573 900 
582334.10949 4827131.4484 900 582338.53204 4827140.7888 900 582361.86764 4827149.6949 900 
582385.84383 4827172.827 900 582391.03568 4827176.7118 900 582412.90559 4827201.0732 900 
582415.34869 4827205.924 900 582440.27926 4827216.4051 900 582472.43644 4827228.7635 900 
582503.56192 4827240.9761 900 582538.56788 4827254.714 900 582549.63533 4827262.0036 900 
582576.70957 4827286.5296 900 582619.88025 4827297.3915 900 582694.83529 4827287.2631 900 
582758.57948 4827288.0494 900 582813.14361 4827286.2904 900 582824.3397 4827285.7511 900 
582835.03645 4827284.4614 900 582873.70802 4827279.8074 900 582936.22657 4827266.7733 900 
582984.54323 4827282.5553 900 583025.95189 4827295.4974 900 583063.50209 4827284.9213 900 
583168.38829 4827264.8053 900 583227.49614 4827247.5884 900 583292.46656 4827205.5856 900 
583337.0465 4827186.8118 900 583384.24105 4827180.4894 900 583399.26605 4827198.6264 900 
583441.02672 4827183.2617 900 583507.8845 4827156.4799 900 583565.21224 4827115.7618 900 
583621.35834 4827059.1454 900 583670.02857 4827045.9454 900 583704.94231 4827024.2876 900 
583732.5591 4827032.9187 900 583741.14935 4827010.9326 900 583788.64749 4826980.4461 900 
583815.92847 4827015.3101 900 583812.31876 4827027.0059 900 583825.86821 4827052.0345 900 
583850.37621 4827031.6248 900 583866.20368 4826984.87 900 583865.37641 4826939.973 900 
583910.7146 4826916.3694 900 583963.97872 4826923.9451 900 584005.63814 4826917.5576 900 
584058.39834 4826909.9322 900 584097.66292 4826929.0744 900 584118.50995 4826924.504 900 
584153.37398 4826906.98 900 584192.83825 4826909.5524 900 584206.3259 4826939.4129 900 
584230.90543 4826968.7241 900 584258.44441 4826982.877 900 584258.22759 4827000.1359 900 
584293.39458 4827014.3959 900 584299.99955 4827040.0269 900 584322.33941 4827081.74 900 
584342.82161 4827106.157 900 584347.32563 4827133.8389 900 584363.10375 4827146.467 900 
584374.18617 4827201.8457 900 584386.48384 4827215.8074 900 584373.21342 4827279.1662 900 
584345.3112 4827294.0107 900 584303.36739 4827323.1746 900 584252.26852 4827419.2039 900 
584219.90735 4827513.3918 900 584212.40972 4827558.862 900 584172.62234 4827692.3118 900 
584154.12259 4827785.9853 900 584153.15233 4827863.2948 900 584156.70345 4827966.9089 900 
584174.72924 4828076.2142 900 584199.92981 4828166.2931 900 584220.91337 4828260.4402 900 
584238.02512 4828277.2281 900 584230.92695 4828290.946 900 584235.51723 4828311.7198 900 
584266.92069 4828348.7037 900 584316.25063 4828392.8223 900 584358.52582 4828446.5052 900 
584410.32713 4828514.1265 900 584430.62191 4828553.0375 900 584430.12633 4828592.3864 900 
584429.56122 4828637.2551 900 584443.15724 4828658.1314 900 584459.99957 4828641.0819 900 
584473.90917 4828636.4253 900 584472.03329 4828675.7568 900 584470.27126 4828705.4148 900 
584485.27306 4828724.2429 900 584526.39959 4828759.2846 900 584540.4738 4828742.2005 900 
584550.75568 4828750.6166 900 584555.14442 4828787.2613 900 584600.36548 4828827.176 900 
584609.47618 4828819.0156 900 584635.04594 4828824.1703 900 584667.93821 4828852.1888 900 
584688.69247 4828854.5281 900 584717.52353 4828875.5976 900 584783.54948 4828913.7104 900 
584875.57616 4828977.0126 900 584934.7113 4829012.2739 900 584994.59301 4829042.7133 900 
585058.7439 4829064.2433 900 585091.38537 4829057.7485 900 585160.62258 4829060.705 900 
585176.55247 4829060.9074 900 585198.83443 4829052.2154 900 585236.88849 4829056.1427 900 
585273.79145 4829041.4275 900 585323.68961 4829039.9965 900 585371.41459 4829025.4196 900 
585418.05345 4829041.6204 900 585418.36154 4829085.2118 900 585432.40444 4829070.7173 900 
585446.92874 4829085.576 900 585453.81047 4829082.6423 900 585466.575 4829032.3196 900 
585485.79115 4829026.733 900 585528.38817 4829040.8725 900 585551.19973 4829051.4384 900 
585602.16276 4829060.7977 900 585616.81801 4829073.5924 900 585628.48996 4829074.7745 900 
585649.11305 4829053.1998 900 585682.41048 4829049.7487 900 585708.80876 4829056.8954 900 
585724.6435 4829078.4251 900 585737.46949 4829077.7228 900 585766.48472 4829056.9556 900 
585785.1911 4829043.2878 900 585845.56805 4829043.5832 900 585861.76406 4829061.4523 900 
585875.52497 4829060.229 900 585884.62318 4829050.6261 900 585909.03371 4829049.1172 900 
585983.05332 4829050.4884 900 586045.21594 4829065.0933 900 586081.62437 4829089.0319 900 
586109.75388 4829098.9683 900 586131.19129 4829087.0028 900 586139.23818 4829060.0028 900 
586129.1625 4829028.8155 900 586112.73449 4828999.5238 900 586113.60592 4828995.1474 900 
586116.44628 4828980.7546 900 586107.13752 4828930.0606 900 586116.85677 4828914.8787 900 
586142.12626 4828902.4737 900 586164.23714 4828866.4238 900 586167.24766 4828844.4576 900 
586175.09371 4828836.2497 900 586167.7451 4828802.6204 900 586181.2512 4828732.1141 900 
586194.28974 4828726.2391 900 586206.7921 4828729.4212 900 586201.71415 4828713.1716 900 
586185.85442 4828703.0483 900 586178.88202 4828687.863 900 586189.90316 4828671.9092 900 
586206.14075 4828665.2089 900 586229.71206 4828684.5066 900 586238.53771 4828684.8757 900 
[...]
CELL_DATA 1
SCALARS Elev double
LOOKUP_TABLE default
900 
