# vtk DataFile Version 5.1
vtk output
ASCII
DATASET UNSTRUCTURED_GRID
POINTS 480 double
502221.73982 4780865.3577 1400 502203.12131 4780889.561 1400 502188.69848 4780907.3246 1400 
502186.79265 4780920.1838 1400 502179.57601 4780945.5235 1400 502186.77868 4780963.6717 1400 
502194.36753 4780968.5937 1400 502200.81398 4780987.8855 1400 502216.74481 4781005.659 1400 
502225.84588 4781033.2695 1400 502217.10964 4781058.22 1400 502221.28281 4781070.326 1400 
502238.35486 4781076.7615 1400 502248.6021 4781078.2752 1400 502259.9828 4781092.649 1400 
502267.57184 4781096.4384 1400 502297.17991 4781088.5082 1400 502318.43023 4781091.1584 1400 
502326.7723 4781102.8883 1400 502329.05149 4781115.7378 1400 502337.01065 4781130.1106 1400 
502338.14448 4781141.4605 1400 502336.24852 4781148.6449 1400 502337.38169 4781161.8827 1400 
502352.55834 4781172.8488 1400 502373.04944 4781184.583 1400 502386.32278 4781200.0904 1400 
502399.97947 4781211.4448 1400 502398.46501 4781219.762 1400 502401.87374 4781232.2343 1400 
502396.55502 4781243.582 1400 502376.81931 4781256.8124 1400 502357.4588 4781266.2562 1400 
502351.38416 4781278.3588 1400 502355.1779 4781282.1358 1400 502348.72042 4781296.8813 1400 
502339.225 4781307.85 1400 502342.26258 4781312.7595 1400 502330.87323 4781325.2378 1400 
502321.00135 4781344.1466 1400 502307.3371 4781355.4803 1400 502306.95285 4781362.2877 1400 
502324.40383 4781375.1534 1400 502327.05738 4781386.1152 1400 502325.15762 4781404.6491 1400 
502323.25323 4781412.9662 1400 502332.74303 4781417.8891 1400 502342.23225 4781400.8681 1400 
502349.07442 4781377.805 1400 502355.14831 4781367.6014 1400 502366.53475 4781363.4409 1400 
502376.40593 4781346.8088 1400 502385.89937 4781341.5149 1400 502399.93799 4781329.0487 1400 
502419.67198 4781343.0482 1400 502430.67332 4781347.9607 1400 502453.44336 4781347.9688 1400 
502467.10046 4781357.0467 1400 502473.54742 4781371.7967 1400 502492.89767 4781389.9608 1400 
502493.64773 4781405.4639 1400 502481.11989 4781419.8295 1400 502472.38486 4781440.2487 1400 
502456.81696 4781457.2562 1400 502442.3967 4781469.3557 1400 502440.87058 4781487.5011 1400 
502429.86179 4781504.1327 1400 502422.64279 4781512.4479 1400 502424.15901 4781521.9101 1400 
502422.63363 4781538.1675 1400 502430.22965 4781520.7684 1400 502447.31162 4781518.5091 1400 
502463.63235 4781509.0644 1400 502467.81153 4781502.636 1400 502489.44616 4781495.0813 1400 
502519.81227 4781476.9466 1400 502527.40046 4781481.4803 1400 502535.73845 4781501.9059 1400 
502544.07384 4781529.1389 1400 502556.20963 4781563.1698 1400 502551.63954 4781593.4186 1400 
502548.60229 4781610.0531 1400 502559.60154 4781619.1301 1400 502585.40563 4781630.1118 1400 
502609.30918 4781638.4388 1400 502609.67427 4781661.1268 1400 502623.33969 4781667.562 1400 
502648.3804 4781676.6446 1400 502665.44919 4781686.4794 1400 502674.93896 4781689.8924 1400 
502677.96488 4781702.7423 1400 502680.99101 4781735.6482 1400 502689.32808 4781756.4404 1400 
502705.26471 4781772.3272 1400 502727.64777 4781781.4202 1400 502733.71276 4781793.8938 1400 
502731.81261 4781810.9062 1400 502734.84095 4781817.3373 1400 502745.08574 4781821.8834 1400 
502757.98259 4781838.9018 1400 502776.56663 4781857.8215 1400 502774.28741 4781867.6487 1400 
502774.66716 4781872.9349 1400 502783.0129 4781871.428 1400 502789.46333 4781874.84 1400 
502808.05453 4781895.6366 1400 502819.05344 4781903.5813 1400 502848.26787 4781916.8309 1400 
502862.67661 4781931.5847 1400 502874.4416 4781933.8551 1400 502889.23408 4781944.0781 1400 
502903.27422 4781946.3496 1400 502914.65888 4781944.8441 1400 502934.3928 4781952.4153 1400 
502963.22638 4781962.2559 1400 502976.12143 4781981.5401 1400 502994.7073 4781994.0305 1400 
503018.9898 4782005.0021 1400 503053.8862 4782029.5935 1400 503066.02911 4782040.1933 1400 
503064.50708 4782045.8563 1400 503074.36052 4782070.0701 1400 503089.91139 4782090.8661 1400 
503096.35389 4782110.9139 1400 503111.89785 4782128.6893 1400 503123.65826 4782140.0331 1400 
503124.79129 4782149.8729 1400 503134.27932 4782155.1633 1400 503145.2783 4782161.2207 1400 
503151.34182 4782174.461 1400 503165.75749 4782189.2043 1400 503196.85541 4782219.0918 1400 
503228.33297 4782253.133 1400 503241.22617 4782273.5616 1400 503265.87558 4782295.8838 1400 
503300.01341 4782321.6088 1400 503313.28981 4782338.6285 1400 503323.907 4782360.1778 1400 
503331.86334 4782373.0415 1400 503329.58201 4782385.9002 1400 503322.37208 4782391.9379 1400 
503315.15386 4782398.3643 1400 503315.53315 4782403.6617 1400 503309.08091 4782405.5464 1400 
503293.14651 4782407.8042 1400 503284.79009 4782415.7403 1400 503298.07202 4782421.044 1400 
503317.0448 4782419.5429 1400 503331.84315 4782414.2529 1400 503341.33195 4782416.9006 1400 
503336.01258 4782428.2475 1400 503330.30784 4782446.7682 1400 503331.82092 4782459.6288 1400 
503322.33477 4782468.3195 1400 503323.46673 4782479.6585 1400 503335.60067 4782489.4926 1400 
503346.97875 4782499.7039 1400 503354.1831 4782521.2626 1400 503365.1783 4782533.3616 1400 
503385.283 4782542.4557 1400 503404.63431 4782546.9963 1400 503430.04688 4782567.4315 1400 
503447.1104 4782581.044 1400 503461.89637 4782599.575 1400 503474.4106 4782611.6861 1400 
503485.78517 4782627.95 1400 503482.36403 4782644.9614 1400 503483.12196 4782656.3002 1400 
503495.63759 4782665.3796 1400 503491.45719 4782673.6953 1400 503498.28176 4782689.9568 1400 
503504.71708 4782704.7079 1400 503503.57261 4782718.3112 1400 503497.88123 4782726.2485 1400 
503497.48944 4782745.538 1400 503492.93244 4782759.5171 1400 503498.23839 4782774.2676 1400 
503505.81882 4782789.7744 1400 503509.22589 4782799.9818 1400 503506.1828 4782808.6757 1400 
503509.21789 4782815.4847 1400 503511.48556 4782829.4674 1400 503514.1296 4782854.0446 1400 
503520.19257 4782865.7748 1400 503520.1871 4782876.3581 1400 503519.79526 4782895.6366 1400 
503528.52283 4782907.7347 1400 503539.13386 4782922.4879 1400 503538.36885 4782940.6334 1400 
503540.6366 4782954.2496 1400 503552.39545 4782964.4615 1400 503567.56493 4782977.6957 1400 
503586.90755 4782980.7376 1400 503598.66608 4782991.3271 1400 503609.66029 4783003.0489 1400 
503624.07924 4783006.4659 1400 503627.48663 4783015.5407 1400 503635.82736 4783036.3341 1400 
503656.67907 4783057.8895 1400 503670.71196 4783068.869 1400 503687.39571 4783090.4221 1400 
503716.22503 4783097.2453 1400 503720.39676 4783104.8103 1400 503718.87091 4783116.903 1400 
503725.30871 4783140.3497 1400 503739.32969 4783172.4848 1400 503753.73258 4783189.5059 1400 
503770.80284 4783201.609 1400 503771.55 4783216.7347 1400 503778.36936 4783240.1816 1400 
503791.63906 4783249.262 1400 503798.08072 4783265.146 1400 503818.55729 4783287.0792 1400 
503826.13642 4783302.5864 1400 503835.99088 4783316.951 1400 503855.34096 4783319.2274 1400 
503880.00053 4783313.5778 1400 503897.46617 4783301.1055 1400 503925.17099 4783283.7417 1400 
503939.58764 4783275.8098 1400 503962.73328 4783275.4457 1400 504013.18351 4783289.4568 1400 
504035.18366 4783302.7072 1400 504036.32484 4783296.278 1400 504015.46471 4783278.4973 1400 
503987.39754 4783262.2227 1400 503971.46779 4783259.5703 1400 503959.32712 4783265.238 1400 
503952.49567 4783263.7126 1400 503944.91173 4783256.9118 1400 503932.39845 4783246.6878 1400 
503921.77628 4783239.5077 1400 503912.29481 4783240.6349 1400 503903.5665 4783245.916 1400 
503892.94128 4783244.022 1400 503888.76874 4783238.356 1400 503888.0173 4783231.1705 1400 
503876.26395 4783213.0178 1400 503875.13217 4783203.189 1400 503882.35849 4783182.0155 1400 
503879.32868 4783166.8996 1400 503875.16298 4783149.1288 1400 503869.85728 4783135.8884 1400 
503864.18043 4783118.1168 1400 503855.46014 4783109.0389 1400 503847.87765 4783099.2064 1400 
503834.23249 4783078.4098 1400 503832.71836 4783069.3359 1400 503824.75353 4783060.2585 1400 
503816.03184 4783053.4461 1400 503816.79292 4783043.6184 1400 503821.73358 4783041.7333 1400 
503817.56086 4783036.0562 1400 503811.11352 4783030.0002 1400 503802.77722 4783016.7692 1400 
503795.1973 4783002.0172 1400 503781.92403 4782983.8639 1400 503777.3771 4782978.9418 1400 
503772.44747 4782975.5408 1400 503767.13851 4782967.5977 1400 503764.10688 4782955.1248 1400 
503758.04503 4782942.2616 1400 503749.32625 4782929.7856 1400 503740.99366 4782909.3696 1400 
503735.68585 4782899.1499 1400 503726.96656 4782887.4291 1400 503723.93255 4782879.1097 1400 
503714.45825 4782866.2557 1400 503711.80627 4782857.5589 1400 503706.11735 4782845.8287 1400 
503709.5375 4782831.4715 1400 503717.13516 4782814.4625 1400 503734.60074 4782803.8776 1400 
503745.98271 4782805.0166 1400 503755.08352 4782802.7562 1400 503759.64687 4782792.9306 1400 
503759.65313 4782781.5922 1400 503753.58903 4782772.5159 1400 503745.6225 4782765.704 1400 
503746.77057 4782746.4259 1400 503747.1591 4782734.3215 1400 503741.85034 4782725.6232 1400 
503724.40696 4782710.1107 1400 503709.24192 4782688.1807 1400 503691.80063 4782668.5039 1400 
503680.79503 4782662.0791 1400 503669.04072 4782657.9083 1400 503648.17219 4782650.3344 1400 
503632.99931 4782642.3861 1400 503623.14284 4782629.1545 1400 503609.49846 4782603.8162 1400 
503603.43389 4782579.6148 1400 503608.39147 4782546.3462 1400 503614.08374 4782537.2762 1400 
503620.15588 4782531.9823 1400 503620.92264 4782526.319 1400 503617.50868 4782513.8349 1400 
503616.02075 4782469.9797 1400 503616.04066 4782432.544 1400 503620.59693 4782420.8304 1400 
503631.233 4782404.9556 1400 503639.58516 4782390.59 1400 503641.11103 4782378.4972 1400 
503638.07648 4782370.5554 1400 503631.25197 4782369.419 1400 503626.31472 4782364.1192 1400 
503621.3892 4782352.0119 1400 503621.39504 4782341.051 1400 503625.20219 4782317.2324 1400 
503623.31445 4782307.0257 1400 503621.80249 4782293.0323 1400 503620.67724 4782269.9662 1400 
503623.72212 4782258.6294 1400 503622.58109 4782249.9334 1400 503616.90486 4782228.3752 1400 
503610.08212 4782208.3377 1400 503607.05658 4782198.508 1400 503603.26666 4782189.7995 1400 
503593.40688 4782181.4765 1400 503583.53716 4782176.5628 1400 503574.81887 4782160.6778 1400 
503565.34348 4782147.4354 1400 503555.10427 4782134.2037 1400 503553.59134 4782121.7207 1400 
503554.34997 4782116.0463 1400 503545.25401 4782107.3462 1400 503530.45612 4782094.4898 1400 
503520.6012 4782076.3277 1400 503513.784 4782060.4437 1400 503505.05318 4782052.499 1400 
503484.94408 4782049.468 1400 503470.14771 4782049.0829 1400 503465.59974 4782044.5385 1400 
503457.25285 4782032.4407 1400 503445.50669 4782009.7468 1400 503435.27277 4781985.1658 1400 
503434.14512 4781965.4979 1400 503425.79712 4781955.288 1400 503421.25343 4781942.0484 1400 
503421.63729 4781922.0148 1400 503424.30275 4781905.3805 1400 503423.93582 4781891.7653 1400 
503412.9329 4781877.0121 1400 503401.18557 4781855.8286 1400 503392.84022 4781839.944 1400 
503390.5748 4781820.2867 1400 503389.82551 4781807.4265 1400 503382.23657 4781806.29 1400 
503377.30027 4781814.2277 1400 503372.36278 4781808.1729 1400 503373.88906 4781794.5587 1400 
503365.16679 4781784.7263 1400 503373.52577 4781773.392 1400 503372.01261 4781760.5315 1400 
503385.29667 4781747.6782 1400 503374.29367 4781748.8055 1400 503361.38324 4781762.0365 1400 
503360.99796 4781768.8438 1400 503353.40171 4781782.455 1400 503349.59801 4781800.599 1400 
503350.73387 4781820.6445 1400 503362.48516 4781834.2542 1400 503354.52078 4781836.5268 1400 
503341.23422 4781838.4081 1400 503328.70687 4781849.7404 1400 503325.28518 4781867.8957 1400 
503321.10172 4781881.8863 1400 503311.60278 4781898.5172 1400 503309.6992 4781919.6828 1400 
503303.99887 4781928.3865 1400 503292.99637 4781929.1363 1400 503281.61342 4781926.8543 1400 
503273.64614 4781918.5326 1400 503257.33468 4781908.3191 1400 503244.06543 4781891.2996 1400 
503228.51296 4781873.9015 1400 503211.06747 4781855.7362 1400 503186.78847 4781836.8237 1400 
503178.06617 4781826.6029 1400 503170.10781 4781798.6252 1400 503161.78018 4781760.8081 1400 
503147.00065 4781722.6104 1400 503136.77185 4781683.6598 1400 503130.71289 4781659.4588 1400 
503121.22817 4781645.4619 1400 503094.67701 4781617.4646 1400 503068.88119 4781589.8565 1400 
503044.60999 4781568.668 1400 503041.19245 4781560.7263 1400 503042.33417 4781551.6427 1400 
503037.40516 4781543.7003 1400 503019.57555 4781527.4344 1400 503001.37138 4781512.6786 1400 
502984.30048 4781489.228 1400 502976.34327 4781474.4768 1400 502982.04769 4781437.7989 1400 
502979.02852 4781410.5787 1400 502973.72782 4781378.8045 1400 502968.05602 4781322.0878 1400 
502963.89427 4781305.8168 1400 502955.93229 4781282.7479 1400 502950.25288 4781243.0444 1400 
502955.19846 4781213.5511 1400 502965.08355 4781187.4582 1400 502973.82187 4781163.6414 1400 
502975.34782 4781149.272 1400 502981.03925 4781142.8446 1400 502982.56489 4781129.2303 1400 
502976.50093 4781114.1024 1400 502977.6423 4781105.7851 1400 502986.75624 4781096.7161 1400 
502985.61702 4781081.5904 1400 502977.65653 4781073.258 1400 502966.27435 4781065.6904 1400 
502968.54669 4781072.8764 1400 502978.40668 4781086.1181 1400 502973.08705 4781097.0877 1400 
502964.73801 4781103.8915 1400 502965.11601 4781112.9647 1400 502970.80069 4781122.0401 1400 
502966.24418 4781134.8979 1400 502950.29813 4781138.6778 1400 502940.81357 4781140.5616 1400 
502937.01486 4781148.8777 1400 502929.41827 4781163.6222 1400 502916.50922 4781173.0671 1400 
502901.70269 4781191.9729 1400 502888.40327 4781221.4627 1400 502881.1861 4781242.6372 1400 
502878.8966 4781275.9074 1400 502873.95507 4781296.7053 1400 502859.90261 4781320.52 1400 
502837.87893 4781342.8211 1400 502815.1023 4781358.7032 1400 502799.536 4781369.28 1400 
502790.05335 4781367.3883 1400 502780.56458 4781360.5769 1400 502774.8817 4781346.9596 1400 
502761.98426 4781329.186 1400 502749.46503 4781320.4745 1400 502738.46647 4781309.1317 1400 
502729.36072 4781299.2999 1400 502712.28097 4781294.3735 1400 502683.8239 4781290.1978 1400 
502665.99174 4781276.5758 1400 502656.88864 4781259.5591 1400 502648.93517 4781232.7036 1400 
502643.24393 4781218.72 1400 502636.03806 4781212.6648 1400 502630.34459 4781204.3449 1400 
502618.96923 4781178.6209 1400 502604.56372 4781149.8751 1400 502587.87351 4781123.7715 1400 
502574.59435 4781102.9776 1400 502557.52738 4781084.059 1400 502545.76435 4781072.3275 1400 
502543.113 4781056.0685 1400 502537.05223 4781029.5915 1400 502533.64421 4781015.5977 1400 
502537.06351 4780999.341 1400 502537.06703 4780989.8905 1400 502533.27309 4780986.4798 1400 
502518.84735 4780988.3734 1400 502513.53819 4780994.7902 1400 502498.72898 4781000.8371 1400 
502494.93101 4781008.3983 1400 502486.584 4781010.6719 1400 502471.7871 4781005.3693 1400 
502459.64019 4780998.1798 1400 502431.18537 4780983.7995 1400 502416.7618 4780979.6299 1400 
502391.71782 4780971.6809 1400 502356.42849 4780956.1657 1400 502344.29027 4780946.711 1400 
502340.87226 4780936.8706 1400 502351.12465 4780924.0255 1400 502364.79642 4780893.7686 1400 
502323.77463 4780885.6143 1400 502265.95552 4780874.1343 1400 502221.73982 4780865.3577 1400 

CELLS 2 480
OFFSETS vtktypeint64
0 480 
CONNECTIVITY vtktypeint64
0 1 2 3 4 5 6 7 8 
9 10 11 12 13 14 15 16 17 
18 19 20 21 22 23 24 25 26 
27 28 29 30 31 32 33 34 35 
36 37 38 39 40 41 42 43 44 
45 46 47 48 49 50 51 52 53 
54 55 56 57 58 59 60 61 62 
63 64 65 66 67 68 69 70 71 
72 73 74 75 76 77 78 79 80 
81 82 83 84 85 86 87 88 89 
90 91 92 93 94 95 96 97 98 
99 100 101 102 103 104 105 106 107 
108 109 110 111 112 113 114 115 116 
117 118 119 120 121 122 123 124 125 
126 127 128 129 130 131 132 133 134 
135 136 137 138 139 140 141 142 143 
144 145 146 147 148 149 150 151 152 
153 154 155 156 157 158 159 160 161 
162 163 164 165 166 167 168 169 170 
171 172 173 174 175 176 177 178 179 
180 181 182 183 184 185 186 187 188 
189 190 191 192 193 194 195 196 197 
198 199 200 201 202 203 204 205 206 
207 208 209 210 211 212 213 214 215 
216 217 218 219 220 221 222 223 224 
225 226 227 228 229 230 231 232 233 
234 235 236 237 238 239 240 241 242 
243 244 245 246 247 248 249 250 251 
252 253 254 255 256 257 258 259 260 
261 262 263 264 265 266 267 268 269 
270 271 272 273 274 275 276 277 278 
279 280 281 282 283 284 285 286 287 
288 289 290 291 292 293 294 295 296 
297 298 299 300 301 302 303 304 305 
306 307 308 309 310 311 312 313 314 
315 316 317 318 319 320 321 322 323 
324 325 326 327 328 329 330 331 332 
333 334 335 336 337 338 339 340 341 
342 343 344 345 346 347 348 349 350 
351 352 353 354 355 356 357 358 359 
360 361 362 363 364 365 366 367 368 
369 370 371 372 373 374 375 376 377 
378 379 380 381 382 383 384 385 386 
387 388 389 390 391 392 393 394 395 
396 397 398 399 400 401 402 403 404 
405 406 407 408 409 410 411 412 413 
414 415 416 417 418 419 420 421 422 
423 424 425 426 427 428 429 430 431 
432 433 434 435 436 437 438 439 440 
441 442 443 444 445 446 447 448 449 
450 451 452 453 454 455 456 457 458 
459 460 461 462 463 464 465 466 467 
468 469 470 471 472 473 474 475 476 
477 478 479 
CELL_TYPES 1
4

CELL_DATA 1
SCALARS Elev double
LOOKUP_TABLE default
1400 
