# vtk DataFile Version 5.1
vtk output
ASCII
DATASET UNSTRUCTURED_GRID
POINTS 953 double
631165.23201 4797271.8232 1500 631165.04651 4797237.0124 1500 631171.6138 4797189.8782 1500 
631182.97529 4797164.9455 1500 631196.15586 4797136.1486 1500 631189.98903 4797117.3867 1500 
631176.35943 4797101.9465 1500 631154.6862 4797097.616 1500 631122.67022 4797110.4389 1500 
631067.36323 4797112.4121 1500 630979.61949 4797126.7568 1500 630880.522 4797143.0496 1500 
630792.75431 4797158.2628 1500 630739.53195 4797187.5871 1500 630660.63319 4797194.7408 1500 
630595.75511 4797230.3516 1500 630565.50213 4797275.9406 1500 630529.62084 4797308.856 1500 
630490.89079 4797354.0708 1500 630464.94811 4797379.3679 1500 630444.40923 4797406.2912 1500 
630434.72323 4797434.9458 1500 630432.5601 4797468.067 1500 630417.95073 4797492.0716 1500 
630411.54989 4797519.4785 1500 630413.50111 4797553.7788 1500 630403.85734 4797580.2567 1500 
630408.72484 4797598.3372 1500 630409.05603 4797615.2528 1500 630401.40215 4797628.5483 1500 
630400.58008 4797648.4857 1500 630388.38211 4797660.6049 1500 630389.26416 4797671.2429 1500 
630400.72977 4797685.7732 1500 630406.68327 4797704.3191 1500 630403.30864 4797721.5966 1500 
630408.73246 4797744.8984 1500 630409.18673 4797766.3714 1500 630402.61974 4797779.6766 1500 
630404.55038 4797792.7235 1500 630407.68656 4797810.5596 1500 630411.63597 4797831.2334 1500 
630422.196 4797847.7016 1500 630437.5715 4797851.6752 1500 630446.42988 4797865.9443 1500 
630456.12645 4797882.1738 1500 630458.10916 4797903.454 1500 630454.46785 4797911.8385 1500 
630453.38303 4797923.094 1500 630456.8717 4797933.9934 1500 630461.05054 4797942.7507 1500 
630463.61964 4797944.9666 1500 630466.73128 4797941.3381 1500 630468.97323 4797926.8608 1500 
630476.49579 4797909.0078 1500 630485.29449 4797892.7015 1500 630486.42945 4797878.8472 1500 
630488.30469 4797860.6743 1500 630492.19839 4797850.5616 1500 630500.33368 4797845.9523 1500 
630509.50944 4797844.1739 1500 630519.48577 4797845.8883 1500 630524.34235 4797853.57 1500 
630529.66791 4797870.5818 1500 630541.71193 4797900.5107 1500 630547.50031 4797916.2317 1500 
630548.81331 4797938.1546 1500 630545.53028 4797950.6676 1500 630536.03526 4797958.0725 1500 
630523.83196 4797958.7038 1500 630517.25452 4797961.6099 1500 630514.07223 4797968.4811 1500 
630517.16851 4797977.4287 1500 630522.66529 4797985.556 1500 630522.90247 4797995.9705 1500 
630522.50817 4798005.0619 1500 630526.31153 4798010.9901 1500 630529.26428 4798015.6021 1500 
630529.24505 4798027.9559 1500 630527.20499 4798043.3148 1500 630521.93076 4798057.3004 1500 
630516.49992 4798068.4722 1500 630516.53918 4798077.7941 1500 630523.37467 4798084.2141 1500 
630529.33851 4798090.8283 1500 630531.12957 4798099.3175 1500 630528.61649 4798105.5572 1500 
630521.33233 4798111.0494 1500 630514.29622 4798115.0355 1500 630511.15575 4798119.7411 1500 
630511.73733 4798123.6519 1500 630517.29245 4798128.7473 1500 630529.0075 4798130.7063 1500 
630533.50954 4798134.0483 1500 630533.79726 4798141.4197 1500 630529.98288 4798147.4233 1500 
630526.46281 4798149.5218 1500 630526.36258 4798154.7193 1500 630531.5464 4798156.7746 1500 
630534.01088 4798164.4101 1500 630535.76014 4798175.0649 1500 630533.47434 4798180.8757 1500 
630528.23614 4798181.6413 1500 630523.5195 4798178.0729 1500 630517.55573 4798171.4587 1500 
630506.77486 4798166.4847 1500 630497.45146 4798165.005 1500 630489.78394 4798167.668 1500 
630484.60579 4798176.6783 1500 630489.41205 4798186.9587 1500 630493.18193 4798194.6194 1500 
630490.70231 4798199.1266 1500 630489.82012 4798210.8083 1500 630494.11505 4798225.3117 1500 
630494.55369 4798241.6849 1500 630490.30246 4798253.5239 1500 630483.34258 4798259.0335 1500 
630476.13466 4798266.4715 1500 630464.1942 4798276.2179 1500 630453.38194 4798284.2419 1500 
630451.90534 4798293.1014 1500 630456.4173 4798307.2867 1500 630454.43179 4798320.247 1500 
630455.48672 4798332.8437 1500 630459.27731 4798339.4271 1500 630468.50432 4798346.3153 1500 
630486.78523 4798357.2888 1500 630497.54053 4798363.5732 1500 630501.03721 4798374.0395 1500 
630497.77138 4798385.253 1500 630494.10519 4798394.9368 1500 630498.21278 4798407.3701 1500 
630504.85538 4798424.1963 1500 630517.19292 4798449.787 1500 630528.34837 4798458.0234 1500 
630535.9237 4798460.1248 1500 630546.83514 4798469.6565 1500 630555.35076 4798479.353 1500 
630555.63414 4798486.9465 1500 630550.42269 4798497.6892 1500 630550.618 4798510.2693 1500 
630557.1214 4798522.5268 1500 630565.9561 4798527.0301 1500 630576.55494 4798530.0564 1500 
630591.28591 4798544.6502 1500 630606.62928 4798572.4765 1500 630618.60465 4798605.8706 1500 
630624.92932 4798638.7224 1500 630621.42228 4798673.773 1500 630622.92149 4798709.1313 1500 
630636.06498 4798726.9497 1500 630650.67321 4798736.1085 1500 630658.32492 4798745.5774 1500 
630658.33455 4798756.4209 1500 630652.2222 4798768.8792 1500 630647.17718 4798793.268 1500 
630649.15886 4798814.5483 1500 630655.52321 4798834.4024 1500 630659.124 4798839.4491 1500 
630657.17576 4798850.0436 1500 630660.3732 4798865.0593 1500 630656.51062 4798884.4936 1500 
630645.46898 4798904.4338 1500 630635.6977 4798914.8662 1500 630630.44053 4798927.9855 1500 
630617.90815 4798946.1748 1500 630610.8746 4798960.993 1500 630610.3963 4798974.8489 1500 
630612.65541 4798993.1015 1500 630618.61559 4799010.7813 1500 630618.76482 4799025.7381 1500 
630612.05891 4799034.9298 1500 630598.94958 4799049.4085 1500 630578.43017 4799064.1886 1500 
630554.25159 4799077.3761 1500 630543.05422 4799094.0693 1500 630529.88263 4799111.3688 1500 
630512.28041 4799122.0836 1500 630499.8016 4799126.1758 1500 630491.37376 4799134.2568 1500 
630490.27653 4799146.1565 1500 630485.9538 4799156.2609 1500 630477.18845 4799159.5582 1500 
630476.53761 4799170.5999 1500 630480.15227 4799186.279 1500 630481.13578 4799202.985 1500 
630492.5318 4799220.9695 1500 630496.46551 4799231.4553 1500 630506.70235 4799241.8405 1500 
630519.84786 4799248.16 1500 630523.84021 4799255.6029 1500 630523.8877 4799264.4917 1500 
630516.16676 4799269.9866 1500 630508.53388 4799270.917 1500 630504.53867 4799275.395 1500 
630502.40979 4799284.0196 1500 630498.12507 4799291.7361 1500 630494.58865 4799294.712 1500 
630493.24601 4799296.6304 1500 630494.67388 4799301.6462 1500 630496.96914 4799306.6788 1500 
630499.18087 4799316.0427 1500 630506.15061 4799326.787 1500 630511.60611 4799337.4133 1500 
630520.8597 4799348.3129 1500 630532.38824 4799353.5236 1500 630552.04253 4799360.8354 1500 
630572.45122 4799374.0167 1500 630598.65321 4799391.6538 1500 630618.28223 4799400.2651 1500 
630627.31812 4799405.2057 1500 630641.40585 4799407.6441 1500 630671.71148 4799415.5952 1500 
630691.7155 4799427.0359 1500 630714.38531 4799446.9828 1500 630737.05928 4799466.7077 1500 
630754.23898 4799489.5817 1500 630781.13716 4799526.9531 1500 630792.16174 4799553.1745 1500 
630797.53236 4799579.0644 1500 630811.70661 4799610.9794 1500 630821.31063 4799665.3592 1500 
630826.63595 4799704.9024 1500 630823.66653 4799734.7528 1500 630816.3471 4799753.4648 1500 
630809.85521 4799796.9012 1500 630802.81363 4799812.1523 1500 630792.75317 4799826.2673 1500 
630788.98264 4799841.3595 1500 630789.51911 4799858.4902 1500 630791.52902 4799878.2603 1500 
630788.22136 4799892.0615 1500 630788.82051 4799905.9493 1500 630785.48345 4799921.272 1500 
630776.11372 4799933.2229 1500 630773.13932 4799952.0189 1500 630767.10327 4799960.568 1500 
630764.28368 4799971.3567 1500 630755.04083 4799988.0762 1500 630753.60164 4799994.9921 1500 
630747.35516 4800003.1038 1500 630737.97576 4800004.6557 1500 630728.01105 4800002.5078 1500 
630715.05794 4800008.979 1500 630697.6684 4800019.6973 1500 630682.85977 4800031.9765 1500 
630669.56675 4800044.2961 1500 630657.9441 4800049.4822 1500 630649.73193 4800057.7782 1500 
630649.56033 4800066.6628 1500 630657.32053 4800081.7666 1500 630661.30949 4800100.2639 1500 
630665.89641 4800121.8057 1500 630664.64944 4800152.7782 1500 630659.386 4800177.5961 1500 
630650.22008 4800201.6942 1500 630639.25184 4800217.5139 1500 630625.10435 4800229.5949 1500 
630614.72445 4800237.6269 1500 630603.83544 4800249.7709 1500 630580.5031 4800264.2743 1500 
630565.65747 4800278.5084 1500 630552.01099 4800286.9107 1500 630541.54188 4800288.2307 1500 
630524.33038 4800301.1194 1500 630510.06064 4800308.2099 1500 630498.99079 4800318.3952 1500 
630488.21665 4800335.5298 1500 630473.30047 4800353.4401 1500 630454.16094 4800364.9919 1500 
630436.57058 4800374.8404 1500 630419.52246 4800379.2778 1500 630401.78443 4800385.4351 1500 
630389.94145 4800401.6716 1500 630385.16673 4800423.9105 1500 630382.23958 4800440.3189 1500 
630374.53038 4800456.6352 1500 630366.24366 4800469.2629 1500 630359.17031 4800486.2469 1500 
630355.38841 4800501.9945 1500 630353.1427 4800517.1273 1500 630354.3409 4800534.0486 1500 
630352.71878 4800550.4822 1500 630353.08743 4800565.0099 1500 630358.50698 4800577.0353 1500 
630373.96327 4800598.7864 1500 630388.81709 4800618.1373 1500 630394.03822 4800629.5145 1500 
630400.37519 4800638.9468 1500 630404.45005 4800642.0695 1500 630410.92468 4800644.3607 1500 
630417.70977 4800642.3251 1500 630425.31601 4800635.1282 1500 630445.74556 4800618.4462 1500 
630461.49067 4800605.0292 1500 630470.25011 4800601.943 1500 630482.90107 4800606.02 1500 
630489.63891 4800615.6822 1500 630489.19826 4800630.1166 1500 630476.43417 4800664.6888 1500 
630471.0405 4800684.9603 1500 630466.84389 4800699.5 1500 630453.7255 4800714.2008 1500 
630452.30772 4800720.0284 1500 630447.99583 4800723.7337 1500 630442.12384 4800723.8316 1500 
630431.42715 4800720.5922 1500 630420.62404 4800722.4504 1500 630409.45186 4800722.846 1500 
630399.57399 4800730.5435 1500 630389.54367 4800754.9808 1500 630390.92231 4800772.6277 1500 
630385.39246 4800795.7741 1500 630379.70794 4800808.4409 1500 630378.48809 4800815.361 1500 
630380.01351 4800826.6559 1500 630390.05535 4800857.1239 1500 630391.06013 4800862.6205 1500 
[...]
CELL_DATA 1
SCALARS Elev double
LOOKUP_TABLE default
1500 
