# vtk DataFile Version 5.1
vtk output
ASCII
DATASET UNSTRUCTURED_GRID
POINTS 11293 double
472545.74485 4823134.5443 800 472543.90162 4823132.1307 800 472523.76153 4823124.8831 800 
472518.87841 4823123.6814 800 472505.51352 4823135.9306 800 472489.70207 4823146.3463 800 
472486.66669 4823150.6234 800 472476.96108 4823161.0363 800 472433.11571 4823175.2099 800 
472421.56628 4823185.0085 800 472410.66572 4823203.334 800 472370.56664 4823240.6821 800 
472355.9782 4823249.8714 800 472348.66619 4823251.1232 800 472339.46924 4823235.9235 800 
472338.19389 4823224.3339 800 472343.04735 4823216.3842 800 472384.37549 4823183.3177 800 
472388.01957 4823177.8163 800 472392.81747 4823158.2943 800 472400.07759 4823142.4271 800 
472401.26699 4823135.0922 800 472391.40861 4823108.3225 800 472390.71817 4823085.7577 800 
472385.835 4823084.5561 800 472376.70759 4823088.2587 800 472358.45213 4823097.463 800 
472353.57902 4823098.7048 800 472345.63596 4823093.8508 800 472334.58845 4823072.5725 800 
472306.52393 4823069.0232 800 472299.82802 4823070.8722 800 472292.59877 4823092.2258 800 
472283.51871 4823109.3445 800 472269.54537 4823122.7962 800 472249.46443 4823133.852 800 
472226.35385 4823148.5632 800 472220.92499 4823163.8232 800 472213.66283 4823179.0909 800 
472211.88548 4823190.6708 800 472205.24426 4823209.6009 800 472201.01531 4823218.1479 800 
472197.36129 4823221.2061 800 472191.8856 4823221.2288 800 472182.68977 4823210.2941 800 
472141.7352 4823179.3445 800 472121.5392 4823158.7043 800 472095.25042 4823139.2889 800 
472032.25002 4823084.0648 800 471986.4489 4823061.0661 800 471966.90149 4823048.9532 800 
471949.76924 4823034.9866 800 471943.64144 4823025.883 800 471945.42126 4823013.0591 800 
471955.713 4822992.292 800 471967.22649 4822973.9633 800 471979.37377 4822962.34 800 
471990.32692 4822956.8079 800 472012.87764 4822953.0711 800 472040.25497 4822940.7847 800 
472113.3747 4822931.3514 800 472132.27401 4822931.2952 800 472151.15502 4822928.7735 800 
472154.80411 4822924.4936 800 472155.39465 4822920.8261 800 472163.89928 4822911.0397 800 
472162.65396 4822906.7801 800 472132.14539 4822898.355 800 472126.03542 4822893.5158 800 
472127.84604 4822888.0219 800 472152.76486 4822869.0159 800 472153.36153 4822862.9273 800 
472133.1995 4822852.6378 800 472129.52555 4822848.988 800 472120.91561 4822829.5214 800 
472119.04772 4822817.3346 800 472116.5807 4822810.6368 800 472109.87193 4822809.443 800 
472097.09061 4822814.3828 800 472086.73066 4822815.0256 800 472070.23731 4822807.1644 800 
472046.38161 4822784.696 800 472025.55504 4822760.3937 800 472006.64555 4822756.1855 800 
471995.05111 4822751.3471 800 471966.31915 4822729.5213 800 471957.1605 4822727.7382 800 
471946.2095 4822733.8701 800 471919.48778 4822760.17 800 471903.68656 4822773.0303 800 
471885.43348 4822782.8579 800 471850.72765 4822794.5758 800 471838.55988 4822801.3349 800 
471802.63246 4822810.6149 800 471781.93523 4822819.2092 800 471763.68538 4822827.8154 800 
471760.04163 4822833.3171 800 471759.47866 4822847.3354 800 471756.45462 4822850.3912 800 
471750.95995 4822849.8146 800 471736.28909 4822841.3468 800 471722.21953 4822827.9899 800 
471718.53031 4822818.8539 800 471721.55759 4822812.7328 800 471731.27838 4822804.1624 800 
471752.58388 4822796.1652 800 471764.77978 4822796.1139 800 471772.68515 4822791.8159 800 
471791.56433 4822786.8721 800 471806.16362 4822778.2813 800 471818.35147 4822778.2301 800 
471820.7805 4822775.7988 800 471825.56506 4822749.5683 800 471832.79356 4822726.3706 800 
471836.91879 4822687.3486 800 471841.74862 4822675.7336 800 471852.07597 4822665.3394 800 
471866.68574 4822659.1698 800 471888.03994 4822664.589 800 471893.5195 4822661.523 800 
471920.30431 4822654.1031 800 471931.25791 4822648.5709 800 471937.94191 4822641.8571 800 
471965.38177 4822642.3422 800 471987.30142 4822636.1646 800 472021.3691 4822618.3639 800 
472021.34624 4822612.8775 800 472015.85228 4822608.6357 800 471990.85193 4822606.2965 800 
471971.9161 4822597.8238 800 471957.85624 4822588.7311 800 471936.52738 4822589.4199 800 
471925.52827 4822582.158 800 471916.96068 4822573.0424 800 471903.36743 4822524.9209 800 
471901.97316 4822477.3926 800 471895.25846 4822476.7987 800 471867.91235 4822498.8589 800 
471859.44076 4822516.5531 800 471844.29597 4822541.6054 800 471836.39504 4822548.9685 800 
471823.62096 4822555.708 800 471814.48036 4822556.3683 800 471802.27923 4822553.3542 800 
471778.42906 4822534.5518 800 471774.1366 4822526.0403 800 471771.05047 4822516.2799 800 
471772.85064 4822508.3426 800 471773.94515 4822476.6411 800 471775.75822 4822471.769 800 
471797.63774 4822454.0184 800 471797.61974 4822449.7315 800 471794.55161 4822444.258 800 
471794.46752 4822422.3126 800 471799.27748 4822404.0118 800 471805.9283 4822389.3682 800 
471818.67739 4822374.6768 800 471818.66201 4822371.0119 800 471813.75345 4822360.0596 800 
471813.08075 4822346.0465 800 471819.12838 4822332.0052 800 471830.6733 4822320.984 800 
471845.27843 4822315.4585 800 471875.76228 4822315.3308 800 471881.23144 4822311.6429 800 
471881.20085 4822304.3352 800 471876.2132 4822274.4806 800 471870.02116 4822248.2961 800 
471868.14755 4822234.8878 800 471872.40777 4822231.8269 800 471881.55357 4822234.2319 800 
471904.78812 4822252.4376 800 471938.40614 4822275.4644 800 471962.19278 4822280.8737 800 
471967.66798 4822274.7425 800 471969.46547 4822268.0269 800 471985.24812 4822248.4587 800 
471987.04318 4822241.1545 800 471965.03915 4822223.5543 800 471955.84967 4822212.6198 800 
471947.24306 4822196.1965 800 471941.66002 4822168.7877 800 471936.74335 4822157.8132 800 
471929.30881 4822126.1474 800 471925.56854 4822104.8171 800 471921.85888 4822090.8167 800 
471917.4848 4822062.8032 800 471919.25509 4822045.7146 800 471924.69693 4822033.4973 800 
471937.43174 4822015.1635 800 471937.41652 4822011.5207 800 471932.4794 4821995.6818 800 
471928.72942 4821970.109 800 471924.42353 4821960.3537 800 471899.3829 4821947.0422 800 
471899.36757 4821943.3772 800 471903.60969 4821937.8731 800 471922.46844 4821927.4433 800 
471943.79217 4821923.0895 800 471962.07781 4821922.4134 800 471983.45205 4821932.0976 800 
471993.235 4821939.9866 800 472003.64154 4821952.1377 800 472009.13143 4821953.3365 800 
472030.44496 4821946.5396 800 472033.48569 4821943.4839 800 472038.92283 4821930.0673 800 
472048.61939 4821917.2105 800 472049.79698 4821903.1897 800 472052.20608 4821895.8718 800 
472076.48711 4821868.3388 800 472077.06507 4821861.6283 800 472052.05188 4821856.8679 800 
472036.7814 4821848.3797 800 472031.88799 4821841.07 800 472031.85507 4821833.1626 800 
472038.48355 4821814.8322 800 472039.05439 4821804.4789 800 472029.82727 4821780.7281 800 
472031.59753 4821765.4831 800 472027.28715 4821752.7068 800 472026.63811 4821742.3364 800 
472038.17641 4821731.3378 800 472041.77484 4821716.685 800 472046.02779 4821711.7806 800 
472073.98916 4821689.1189 800 472073.95579 4821683.0329 800 472066.55686 4821659.8964 800 
472063.42823 4821637.9637 800 472065.19861 4821622.7188 800 472068.22935 4821617.2198 800 
472074.29799 4821609.8867 800 472087.69305 4821604.3446 800 472099.26659 4821603.6968 800 
472113.93915 4821613.9868 800 472138.36974 4821626.1021 800 472148.74415 4821628.5025 800 
472154.21154 4821624.2151 800 472154.78301 4821612.0182 800 472152.92146 4821605.3178 800 
472152.8487 4821585.8158 800 472154.64906 4821579.7 800 472163.12761 4821563.2056 800 
472164.94823 4821561.9764 800 472165.54957 4821558.9309 800 472171.01508 4821552.2224 800 
472186.81465 4821538.141 800 472187.98905 4821527.1633 800 472189.79505 4821520.4478 800 
472192.21446 4821515.5511 800 472194.01239 4821508.8356 800 472197.64419 4821502.1347 800 
472203.0744 4821486.8746 800 472215.20203 4821469.7433 800 472220.64488 4821457.5263 800 
472227.91356 4821445.324 800 472229.1188 4821439.8326 800 472226.05809 4821436.1802 800 
472207.74336 4821430.1476 800 472174.77385 4821416.246 800 472169.86164 4821408.3366 800 
472169.21537 4821398.5881 800 472171.6278 4821390.0486 800 472180.70756 4821372.3523 800 
472187.34197 4821355.2437 800 472189.7242 4821339.3965 800 472193.34891 4821329.0085 800 
472209.13097 4821312.5061 800 472219.46542 4821305.1334 800 472268.08076 4821263.5068 800 
472269.89948 4821259.8343 800 472269.8266 4821242.1759 800 472267.95801 4821231.8106 800 
472240.5184 4821228.8586 800 472183.8149 4821227.2495 800 472172.8395 4821224.2297 800 
472163.66162 4821216.3379 800 472155.08003 4821204.179 800 472142.26522 4821201.7888 800 
472129.45092 4821197.5772 800 472120.88951 4821190.3049 800 472111.70689 4821179.348 800 
472105.56493 4821167.179 800 472099.99146 4821144.057 800 472098.65094 4821111.1219 800 
472100.42662 4821097.0987 800 472097.96912 4821092.8441 800 472080.25976 4821084.988 800 
472073.53962 4821079.5295 800 472062.50057 4821061.2725 800 472053.26913 4821040.587 800 
472033.66107 4821011.3929 800 472023.2329 4820994.3774 800 472017.07026 4820977.3219 800 
471986.53038 4820961.5896 800 471972.46253 4820949.4538 800 471968.16885 4820942.7636 800 
471966.31751 4820936.663 800 471964.48156 4820934.2495 800 471964.38327 4820906.8179 800 
471975.19788 4820865.3249 800 471984.84343 4820836.009 800 471985.99524 4820817.7236 800 
471979.25145 4820808.6114 800 471942.73768 4820825.1897 800 471921.99904 4820823.4549 800 
471903.082 4820816.8259 800 471889.66758 4820818.0814 800 471868.95269 4820818.1681 800 
471856.74081 4820813.3326 800 471836.56286 4820796.9579 800 471819.4178 4820777.5053 800 
471813.88602 4820766.5557 800 471811.39539 4820752.5502 800 471811.94071 4820734.2451 800 
471813.73597 4820726.9298 800 471817.23864 4820683.6458 800 471826.81521 4820636.0494 800 
471828.56235 4820615.3181 800 471836.40433 4820593.3396 800 471839.43535 4820587.8405 800 
471847.3204 4820578.0563 800 471846.69442 4820571.3509 800 471841.17536 4820563.4664 800 
471835.64083 4820551.8949 800 471832.5672 4820543.3783 800 471832.46543 4820517.1684 800 
[...]
CELL_DATA 1
SCALARS Elev double
LOOKUP_TABLE default
800 
