# vtk DataFile Version 5.1
vtk output
ASCII
DATASET UNSTRUCTURED_GRID
POINTS 232 double
468138.70557 4873400.7013 800 468081.86807 4873384.6925 800 468053.50496 4873387.3953 800 
468031.96964 4873379.7911 800 467994.97285 4873377.4044 800 467948.62937 4873396.4777 800 
467818.51078 4873520.5207 800 467769.02307 4873601.3215 800 467721.0422 4873637.5426 800 
467668.13481 4873721.793 800 467570.5037 4873804.5415 800 467558.70045 4873852.5821 800 
467374.1174 4874088.2948 800 467094.49053 4874230.2194 800 467063.1199 4874148.1165 800 
467012.90128 4874078.0924 800 466962.02245 4873877.8189 800 466959.38946 4874038.9406 800 
466973.53702 4874117.7081 800 466966.81456 4874148.5972 800 466994.35491 4874153.6022 800 
467017.07531 4874225.4628 800 467074.28828 4874317.7219 800 467090.1058 4874386.1962 800 
467071.43082 4874434.283 800 467039.27749 4874538.9724 800 467050.23285 4874667.4492 800 
467109.01108 4874728.8564 800 467019.80411 4874772.1412 800 466913.75223 4874885.7753 800 
466652.87366 4874986.4735 800 466618.43477 4874976.3733 800 466549.74813 4874995.5695 800 
466486.69278 4875108.9819 800 466342.75335 4875207.3898 800 466214.99311 4875442.8025 800 
466118.89191 4875480.9924 800 466032.5744 4875412.8935 800 465983.5052 4875234.9319 800 
465849.07412 4875175.658 800 465789.01677 4875199.9491 800 465721.79982 4875169.453 800 
465746.31673 4875255.0063 800 465737.90722 4875291.4703 800 465698.04411 4875313.947 800 
465659.18414 4875281.1607 800 465571.16806 4875302.1893 800 465430.24456 4875316.6315 800 
465239.1481 4875273.0835 800 465189.41611 4875299.0473 800 465092.96202 4875594.2849 800 
465108.65237 4875635.3207 800 465267.98068 4875852.0926 800 465333.64 4875913.4257 800 
465534.92133 4875934.6532 800 465674.63449 4876021.3056 800 465795.0789 4876037.808 800 
465954.48208 4875942.7512 800 466036.95006 4875930.3309 800 466079.73529 4875890.7028 800 
466172.56036 4875886.8057 800 466246.07281 4875804.1812 800 466297.65091 4875803.9178 800 
466373.02892 4875750.4192 800 466526.31827 4875801.0444 800 466620.68631 4875762.8692 800 
466686.1394 4875785.6749 800 466688.09547 4875831.9262 800 466715.76288 4875863.4865 800 
466767.3405 4875863.2268 800 466809.26083 4875822.7526 800 466810.02714 4875803.0336 800 
466779.84014 4875783.4813 800 466762.4335 4875741.595 800 466718.0779 4875640.7212 800 
466716.01344 4875571.3342 800 466726.92899 4875520.7306 800 466757.71974 4875488.0206 800 
466806.68563 4875480.9213 800 466923.00909 4875361.2471 800 466985.64926 4875336.9423 800 
467014.03301 4875338.5221 800 467025.30141 4875356.4594 800 467020.27344 4875383.0417 800 
467032.38203 4875397.5427 800 467042.80139 4875417.1947 800 467054.20687 4875464.2654 800 
467086.43748 4875548.0635 800 467092.78768 4875442.6474 800 467122.62136 4875391.0951 800 
467175.84465 4875374.5584 800 467186.92099 4875353.933 800 467169.73726 4875356.5952 800 
467143.03389 4875346.4428 800 467128.30681 4875324.2463 800 467134.01359 4875261.6626 800 
467158.85761 4875242.6902 800 467225.87151 4875233.7938 800 467293.66619 4875207.756 800 
467359.03768 4875213.4305 800 467394.15783 4875186.6999 800 467411.11852 4875140.344 800 
467470.10114 4875070.656 800 467502.33019 4874980.5298 800 467560.39878 4874898.8404 800 
467577.86675 4874867.2771 800 467588.17604 4874864.6608 800 467593.14687 4874869.99 800 
467596.36723 4874890.9666 800 467600.08391 4874892.2257 800 467603.2096 4874889.0004 800 
467611.97499 4874865.7103 800 467613.16032 4874859.018 800 467611.97561 4874852.7594 800 
467604.98107 4874840.0427 800 467592.30098 4874807.0057 800 467577.1506 4874763.8068 800 
467571.75429 4874759.9791 800 467559.07137 4874759.075 800 467549.40888 4874762.8767 800 
467536.63128 4874763.9058 800 467538.93741 4874774.9238 800 467547.21272 4874795.4535 800 
467557.38499 4874810.6092 800 467559.15004 4874819.1641 800 467547.55211 4874831.9165 800 
467538.90892 4874834.3692 800 467530.62475 4874833.2325 800 467517.27547 4874828.7998 800 
467480.91186 4874805.2872 800 467445.57586 4874774.0614 800 467423.29394 4874758.9323 800 
467413.75019 4874757.5466 800 467401.27572 4874756.664 800 467384.29681 4874757.3143 800 
467374.41942 4874759.7733 800 467367.09846 4874757.3436 800 467360.16421 4874745.5933 800 
467362.43926 4874696.7218 800 467373.31984 4874649.0852 800 467379.55823 4874643.2454 800 
467391.49614 4874642.5423 800 467409.29363 4874651.8067 800 467424.86659 4874656.9058 800 
467432.14403 4874656.9921 800 467438.1776 4874655.1186 800 467454.56976 4874665.4563 800 
467460.83152 4874678.9983 800 467467.8596 4874698.4344 800 467477.40949 4874709.1946 800 
467488.112 4874714.7844 800 467506.31025 4874719.2377 800 467518.88645 4874726.1289 800 
467529.50562 4874735.9731 800 467537.93608 4874739.1305 800 467551.28006 4874739.1872 800 
467563.37509 4874736.2399 800 467570.76786 4874732.0829 800 467572.19539 4874724.1232 800 
467567.41644 4874673.0095 800 467563.93551 4874649.6017 800 467559.97558 4874639.6359 800 
467549.85073 4874630.9221 800 467538.63309 4874623.2689 800 467522.90194 4874620.2251 800 
467515.35923 4874626.5044 800 467505.77914 4874622.6529 800 467483.28527 4874603.6149 800 
467472.56407 4874592.6383 800 467459.61195 4874579.4513 800 467456.00524 4874561.5089 800 
467458.59615 4874542.4363 800 467470.09624 4874526.0189 800 467490.38022 4874517.7332 800 
467508.91858 4874519.5302 800 467536.21517 4874512.8428 800 467566.44925 4874516.7929 800 
467585.86163 4874523.584 800 467599.66957 4874521.7392 800 467609.55702 4874516.3371 800 
467611.04349 4874499.1249 800 467641.39032 4874465.5438 800 467656.8246 4874452.0842 800 
467673.66852 4874446.6148 800 467689.20301 4874438.8749 800 467700.58377 4874429.045 800 
467711.90432 4874406.8866 800 467720.91328 4874403.7104 800 467728.47884 4874406.9389 800 
467727.29398 4874417.0522 800 467727.10694 4874429.6263 800 467730.20474 4874456.7347 800 
467733.37357 4874472.1359 800 467742.87933 4874483.7297 800 467751.86659 4874490.9055 800 
467757.36778 4874489.9234 800 467758.60408 4874483.7751 800 467748.81444 4874473.1268 800 
467745.3967 4874465.835 800 467745.41629 4874455.0721 800 467765.85621 4874416.2086 800 
467782.77862 4874397.2107 800 467805.53695 4874381.7386 800 467821.34458 4874370.7767 800 
467828.50232 4874364.3219 800 467845.15043 4874358.0654 800 467862.29676 4874352.073 800 
467880.36159 4874350.3635 800 467898.302 4874354.3859 800 467923.61067 4874363.9373 800 
467958.98523 4874370.0856 800 468007.31014 4874375.9715 800 468016.36965 4874381.5478 800 
468027.30993 4874384.9158 800 468038.44612 4874382.3962 800 468053.85311 4874374.6911 800 
468123.55236 4874358.849 800 468189.31461 4874265.9878 800 468213.29983 4874247.0237 800 
468226.78901 4874190.4015 800 468274.97013 4874196.1679 800 468262.72631 4874153.3866 800 
468314.93649 4874103.4319 800 468322.59254 4874085.4017 800 468100.23347 4873448.0253 800 
468078.76459 4873454.1267 800 468065.84266 4873449.0466 800 468069.99823 4873419.8815 800 
468085.43507 4873411.2434 800 468133.64655 4873420.4407 800 468136.28221 4873410.1429 800 
468138.70557 4873400.7013 800 
CELLS 2 232
OFFSETS vtktypeint64
0 232 
CONNECTIVITY vtktypeint64
0 1 2 3 4 5 6 7 8 
9 10 11 12 13 14 15 16 17 
18 19 20 21 22 23 24 25 26 
27 28 29 30 31 32 33 34 35 
36 37 38 39 40 41 42 43 44 
45 46 47 48 49 50 51 52 53 
54 55 56 57 58 59 60 61 62 
63 64 65 66 67 68 69 70 71 
72 73 74 75 76 77 78 79 80 
81 82 83 84 85 86 87 88 89 
90 91 92 93 94 95 96 97 98 
99 100 101 102 103 104 105 106 107 
108 109 110 111 112 113 114 115 116 
117 118 119 120 121 122 123 124 125 
126 127 128 129 130 131 132 133 134 
135 136 137 138 139 140 141 142 143 
144 145 146 147 148 149 150 151 152 
153 154 155 156 157 158 159 160 161 
162 163 164 165 166 167 168 169 170 
171 172 173 174 175 176 177 178 179 
180 181 182 183 184 185 186 187 188 
189 190 191 192 193 194 195 196 197 
198 199 200 201 202 203 204 205 206 
207 208 209 210 211 212 213 214 215 
216 217 218 219 220 221 222 223 224 
225 226 227 228 229 230 231 
CELL_TYPES 1
4

CELL_DATA 1
SCALARS Elev double
LOOKUP_TABLE default
800 
