# vtk DataFile Version 5.1
vtk output
ASCII
DATASET UNSTRUCTURED_GRID
POINTS 57 double
608885.81432 4779868.0334 1000 608950.05107 4779907.229 1000 608996.13973 4779952.9217 1000 
609001.42307 4780048.0036 1000 608976.0899 4780141.7399 1000 608968.4308 4780195.0478 1000 
608998.29825 4780296.4551 1000 608989.12031 4780391.2944 1000 609040.78874 4780459.9709 1000 
609076.70949 4780396.0855 1000 609164.08414 4780361.0181 1000 609279.78549 4780364.5743 1000 
609418.84877 4780397.3339 1000 609568.60428 4780505.7601 1000 609715.15636 4780548.8327 1000 
609979.71166 4780452.1729 1000 610209.08975 4780321.0399 1000 610237.93913 4780174.3892 1000 
610251.52596 4780118.1792 1000 610177.81065 4780097.4684 1000 610139.87362 4779969.6315 1000 
610079.22693 4779919.041 1000 609929.27012 4779901.7772 1000 609839.66139 4779889.7223 1000 
609751.99069 4779889.5857 1000 609676.88591 4779875.6452 1000 609592.38879 4779836.9718 1000 
609492.05567 4779803.5434 1000 609379.85094 4779740.6777 1000 609309.71842 4779682.2996 1000 
609281.88876 4779639.4416 1000 609268.34962 4779554.8242 1000 609235.08967 4779452.506 1000 
609212.58634 4779343.1513 1000 609235.98004 4779264.214 1000 609255.17376 4779102.9311 1000 
609241.21553 4779017.4628 1000 609174.52324 4778902.7231 1000 609181.27034 4778827.3289 1000 
609159.44078 4778754.8757 1000 609094.68376 4778731.7882 1000 608921.94483 4778832.929 1000 
608858.87067 4778837.8632 1000 608771.72819 4778963.7148 1000 608759.0003 4778987.6828 1000 
608751.36496 4779105.2408 1000 608749.97384 4779126.6574 1000 608746.96726 4779155.024 1000 
608733.72074 4779184.5046 1000 608553.83975 4779467.9028 1000 608534.52202 4779504.9183 1000 
608528.41244 4779541.3001 1000 608537.81773 4779672.0709 1000 608587.0708 4779679.2102 1000 
608671.74192 4779734.4248 1000 608728.74349 4779815.9137 1000 608885.81432 4779868.0334 1000 

CELLS 2 57
OFFSETS vtktypeint64
0 57 
CONNECTIVITY vtktypeint64
0 1 2 3 4 5 6 7 8 
9 10 11 12 13 14 15 16 17 
18 19 20 21 22 23 24 25 26 
27 28 29 30 31 32 33 34 35 
36 37 38 39 40 41 42 43 44 
45 46 47 48 49 50 51 52 53 
54 55 56 
CELL_TYPES 1
4

CELL_DATA 1
SCALARS Elev double
LOOKUP_TABLE default
1000 
